# vtk DataFile Version 2.0
S, Created by Mohamad Ibrahim Cheikh
ASCII
DATASET UNSTRUCTURED_GRID
POINTS 10490 double
-223.577 20.3383 -34.7914
-223.732 23.2833 -32.7642
-130.494 -29.3211 69.2781
-194.385 -37.8826 -41.0223
-207.477 29.5025 40.042
-235.881 27.3945 13.4743
-191.276 -39.7124 -41.0808
14.4399 -3.17108 87.7976
-191.088 39.2075 -41.6684
-193.43 36.92 -42.428
-251.147 3.2111 -3.3801
-251.007 5.4614 -0.714548
-204.328 29.2925 -42.1244
18.6463 -1.58233 87.7435
-201.232 30.3615 -43.1792
-151.391 68.7295 -14.6364
-148.618 69.9371 -12.192
241.381 21.7602 -11.7088
240.378 24.3442 -8.7825
40.0746 72.8279 -47.3653
43.885 72.1335 -48.01
45.49 -3.23558 -86.488
49.3455 -1.53672 -86.2759
-145.563 -45.4986 -55.4954
-142.059 -46.9236 -55.4204
-191.797 -27.3673 49.9127
-189.472 -30.0451 49.4579
-64.339 -67.839 51.3329
-66.4777 -66.0186 53.3338
-121.233 -41.6834 -64.862
-205.502 44.602 24.1719
-208.44 41.8656 25.9231
-64.8776 -22.6449 81.9505
-61.2359 -23.9565 81.9206
44.3486 4.13309 86.5224
-201.399 -44.918 27.5758
-54.3958 82.1073 -25.3006
-51.5234 81.679 -27.3408
-109.542 -78.4118 -11.2477
-105.515 -79.2424 -10.0779
-195.509 42.6331 35.3083
-200.947 -43.0035 30.838
-54.4341 -15.3752 84.5271
3.54337 8.21562 87.6069
226.255 36.0722 -13.2452
223.494 37.2783 -15.4584
-147.02 22.4056 -67.7913
-143.854 23.6487 -68.1994
-167.021 -43.0254 -49.7746
-163.502 -43.4804 -50.7988
-215.267 -7.16081 -44.9365
-215.168 -3.16512 -45.451
-105.651 -17.6605 77.8814
-104.115 -21.1953 77.2503
-247.959 -12.5244 7.7245
-247.222 -12.2256 10.5722
-226.225 -18.8478 33.512
-129.028 -40.8345 -63.5476
238.447 4.07536 -27.6832
236.191 2.11791 -30.159
30.7275 -3.78579 -87.2586
26.7512 -2.06792 -87.4763
-224.961 -22.5413 32.2492
-47.66 -75.8727 41.3429
-235.553 -26.7708 15.3058
-110.518 51.0902 -60.3192
-237.919 -25.2897 13.1985
-16.8315 -1.55583 -87.7889
-20.0221 -4.07786 -87.6259
25.3134 7.40504 -87.2394
27.4283 3.61744 -87.4003
25.4907 1.64556 -87.5314
45.9925 -6.36099 -86.2819
-242.159 -16.9756 16.6251
249.587 -5.3692 -9.40944
249.111 -2.3026 -11.8806
-169.146 48.1596 43.8391
30.4397 -13.5083 -86.3023
-165.523 47.9275 45.7453
-244.371 -14.4435 14.9725
243.986 6.92781 20.1941
244.544 3.56422 20.2422
-218.53 -34.253 26.9075
-142.146 -69.411 21.2685
-139.63 -70.7398 18.786
-221.096 -32.0566 27.0474
-157.971 -59.8004 33.3568
-205.042 32.4577 39.2844
-154.32 -61.3641 32.6009
21.3225 7.29836 87.3789
-119.105 18.4694 75.2733
-116.433 20.5465 75.2469
25.5783 -59.0353 64.6431
29.1137 -57.6655 65.688
-134.636 54.9883 -50.0101
-136.957 52.5125 -51.8652
-177.099 57.9125 23.4568
-176.718 59.3816 19.8598
-70.4108 64.9446 -54.0299
-62.7923 16.9185 -83.5167
-66.4047 16.9263 -83.1723
-66.8662 66.4612 -52.721
124.475 57.7409 50.1302
121.043 58.3474 50.456
-132.441 -69.8473 26.7929
-132.815 -68.0013 30.9867
-188.881 35.1106 46.2969
-185.134 37.2785 46.455
-232.727 13.1727 -30.6497
-60.6843 74.7933 41.2201
-61.9772 76.3107 38.0841
-231.928 16.7969 -29.6019
-175.272 -46.957 -42.1659
-178.796 -11.2361 60.8596
-181.802 -8.37799 60.2267
-195.832 53.7469 12.6511
-198.388 52.0598 14.6699
-195.137 -6.40584 -55.1455
-196.112 -2.36686 -55.0429
-155.762 25.0101 64.4058
-159.485 22.47 64.2264
-196.211 -54.5515 -7.39845
-193.182 -56.048 -5.79669
-91.5647 75.0979 -32.8303
-87.5972 75.4739 -33.2903
-39.2308 -78.9683 -36.3261
-42.732 -77.6555 -38.6012
-35.7416 20.3765 -84.69
-119.252 -59.0802 -50.1244
-116.057 -58.393 -51.8192
-103.566 -58.9138 54.4057
-107.461 -57.2238 55.2776
-176.122 46.8941 -41.8006
26.9033 13.8964 -86.3845
23.8252 15.7378 -86.179
-175.615 44.5872 -44.4991
-89.4484 -39.6 72.0852
-93.3189 -38.4675 72.0977
-1.70619 -75.0139 -46.0061
2.63282 -75.2498 -45.6139
-158.024 -33.2005 -59.8702
-154.737 -36.6347 -58.9109
26.4749 72.5895 48.8769
28.8556 70.5563 51.6126
-166.627 38.7915 53.2917
-169.031 36.4143 54.0368
126.651 60.2615 46.354
125.019 62.2378 44.2368
55.9292 20.2527 83.3718
-158.165 12.6283 67.2441
-155.549 9.85217 68.4447
-44.6642 72.7326 -47.0077
71.0203 53.0492 -65.6678
-42.0331 74.4086 -44.6212
222.064 -27.8284 -30.5323
225.276 -26.0125 -29.2251
-17.9637 78.4301 -39.4106
-20.8053 77.2315 -41.5487
247.477 -7.06407 13.9944
245.671 -9.07241 16.5072
-182.898 19.8459 57.0492
-181.356 22.6879 56.5908
-56.14 68.1793 52.0549
-53.8457 70.0175 49.8656
-221.676 26.3857 -32.1172
245.289 -12.7014 14.7128
-123.34 -44.6632 -62.3433
-128.466 -46.9026 -59.3599
-126.786 -44.2475 -61.7909
-219.064 -11.0554 41.7909
-206.378 49.8739 -6.48308
-208.064 48.5111 -9.51828
-173.564 -35.1413 53.1126
-196.135 -34.8663 -42.6449
-56.8625 10.5766 85.0663
-100.115 80.5815 4.84663
-149.824 -21.4723 67.3403
-153.214 -21.7197 66.3193
-106.161 79.7369 2.4902
-103.848 79.9519 5.5987
-208.26 -1.82691 -49.3007
-211.703 -0.42944 -47.5048
7.87738 76.0507 -44.1891
9.42067 74.2942 -47.0479
-23.7829 85.3421 -19.7853
-25.3999 84.3239 -23.5473
13.1822 73.9619 -47.459
-209.323 34.9039 -34.0775
-209.443 37.4739 -31.1308
-243.671 12.2877 -17.9902
-206.009 40.0812 -30.6855
-237.953 16.7264 23.0658
-240.125 13.5328 22.3944
-198.677 34.6978 41.3208
-44.098 -51.8653 -69.3968
-47.9425 -52.185 -68.8427
-65.7063 77.9973 -33.643
-62.6536 78.9893 -32.0013
-198.916 37.6915 38.4588
-195.388 39.9797 38.3621
193.195 51.8472 -22.0511
191.21 51.6114 -24.5779
-17.5025 71.7681 -50.5552
-15.9142 70.1254 -52.8717
-160.726 -8.68421 67.1257
-158.275 -5.14993 68.1945
-159.182 -12.1874 67.0314
-155.591 -13.9555 67.7154
-181.219 -39.3698 -46.6195
-187.07 -34.8955 -47.348
234.201 -8.1983 31.0077
231.367 -8.83978 33.3481
-185.725 -37.8064 -45.7338
-220.423 -36.332 -21.8072
-223.2 -33.1949 -23.2993
-74.8656 69.3816 47.3707
-199.264 43.3593 -31.6661
-202.428 40.5054 -32.9615
-79.5094 71.8049 42.5921
-75.7246 71.5628 43.8261
-199.863 -47.1008 -25.1998
-196.405 -49.1628 -24.5818
-156.239 -38.5676 57.1658
-155.218 -34.6089 59.9712
-162.937 56.2393 -36.4801
-159.796 58.0694 -35.2949
245.94 -16.0779 8.95225
246.756 -13.0535 10.9094
-202.197 25.1196 -45.9087
246.469 -16.6406 5.45926
-222.674 -40.7298 -3.81009
-219.563 -42.6766 -4.53664
-225.918 36.4499 -12.9115
-224.094 36.2077 -16.8757
-228.901 -34.8682 10.6495
-231.376 -33.5775 7.89082
-225.472 -37.7615 9.6949
119.605 74.8225 19.8542
-172.164 -51.102 -38.7773
115.411 75.6367 19.8084
47.9001 12.1434 -85.5315
51.489 10.7552 -85.462
-180.223 -22.1807 57.2315
-179.976 52.3122 -32.2763
-165.46 0.844031 66.2686
-168.583 2.81999 65.2422
-181.023 -17.4233 58.5533
36.4529 -59.7576 63.3273
37.7868 -57.2109 65.5446
-159.985 -59.9395 -31.9
-182.768 -21.7991 -56.3835
-184.316 -18.0326 -57.0927
-11.9601 14.9069 -86.6272
-188.59 -54.998 19.1009
-192.466 -53.1212 19.6698
-145.958 9.32198 -71.0555
-143.751 12.1182 -71.1843
-174.401 52.3989 35.7005
-173.453 50.7013 38.5997
-187.198 39.6982 -43.3324
-231.504 33.4911 -7.79779
-229.098 35.9658 -4.96061
-234.908 30.8675 -5.93748
241.404 7.72059 23.4443
239.892 10.8364 24.102
240.61 13.4015 21.8298
-138.88 -61.8306 -39.4915
-138.123 -60.1636 -42.292
-141.497 -58.2522 -43.5828
-200.351 -41.1655 -33.6898
-218.718 20.1121 -38.5061
-52.726 8.94351 85.5783
-56.68 -81.1833 27.5672
-60.1944 -81.461 25.7777
-152.62 56.1685 41.6812
-153.449 58.0335 38.6434
-189.415 -9.9022 -57.0382
-186.069 -8.88223 -58.5352
64.9083 -8.71712 84.5707
67.8929 -7.08979 84.4358
-196.835 -37.2206 40.1891
-200.415 -34.611 40.3549
-180.668 -48.246 -37.6838
-174.532 -52.0917 -36.07
-215.619 -38.509 23.8557
-218.655 -36.4151 23.7598
-178.254 -50.9821 -35.421
-121.724 47.8649 -60.3236
-71.6756 59.2599 60.0274
26.8711 -68.3038 54.6826
24.8101 -66.5903 56.8715
-87.2089 -8.61879 -82.0889
-84.0276 -6.31659 -82.7023
-36.5831 85.3216 -17.3307
-39.7927 84.7691 -19.0872
-75.4602 59.7877 58.926
-117.784 48.8518 -60.4898
67.1059 -10.9793 -84.0959
63.3569 -11.5828 -84.3706
-122.427 44.6587 -62.5665
-76.5765 63.7496 -54.4249
-80.0496 64.0126 -53.4963
-210.937 -46.4386 -11.8322
-207.91 -47.2776 -14.7159
-70.3817 -66.9064 51.5855
-82.8212 61.5261 -55.8457
181.008 57.5718 -20.4498
187.795 54.7414 -20.7272
-57.9796 -57.7733 -63.2035
-60.2441 -59.9519 -60.8722
185.033 56.5046 -18.9615
-52.2286 4.8391 85.9454
170.803 -60.94 -21.4144
166.657 -61.8364 -22.7989
-242.16 -11.2312 20.9366
-241.443 -7.71483 23.3968
231.623 25.8607 -22.5155
229.371 25.1798 -25.8605
225.985 27.6871 -26.9258
-235.384 -18.9703 -24.5114
-234.85 -16.6288 -26.7371
-226.071 27.1579 -27.3722
-222.955 28.4591 -29.1236
-220.771 31.3731 -28.151
-250.634 -7.29632 -0.178264
-176.064 45.2984 43.5535
58.7164 51.2281 -68.539
59.7786 48.3962 -70.4578
128.123 68.3799 32.5336
131.613 68.3058 30.9446
-176.96 47.602 40.548
-181.06 46.7498 39.3046
18.7051 -86.4181 15.267
142.041 69.3649 -21.5029
141.109 68.3955 -25.0646
23.2386 -86.1703 15.892
181.098 -44.0246 42.3148
25.6369 -86.6618 12.3797
-189.029 21.6351 -53.8632
-189.449 17.8892 -55.0441
-212.326 -45.0148 14.0791
-120.854 -47.0075 -61.2054
-24.3194 -37.2773 79.259
52.3424 18.5031 -84.0607
55.8549 16.716 -84.1583
-25.2882 -41.126 77.294
-119.135 -6.55393 -77.2228
-115.756 -7.77067 -77.7374
-200.054 16.4633 50.7255
-215.148 -43.2647 14.3196
-153.455 32.9938 61.4195
-156.886 31.3277 61.2306
-157.692 28.1745 62.496
-79.9671 -83.431 0.603141
-63.7786 72.4113 -44.7502
-62.8874 70.3965 -48.0014
-79.8046 -83.3553 -4.02083
-209.642 -18.6829 44.8795
-60.7099 71.0242 47.4165
-205.671 -19.6763 46.6685
-191.284 -46.3889 33.3528
-190.154 -45.0081 35.9354
-195.138 47.318 29.0345
-192.217 -42.6385 37.4498
-97.7244 19.6998 78.6556
-94.1604 20.9522 78.8639
-195.846 -41.8734 35.9821
-247.679 -8.81317 12.483
188.065 -42.022 40.5952
184.93 -44.2656 39.9693
-127.302 75.4796 7.92116
-123.704 75.9983 9.73426
48.9052 1.66411 86.3042
130.449 15.5866 -73.6049
-179.752 46.5064 -40.3155
198.596 13.1791 52.3603
200.491 9.43233 52.2854
113.37 74.8975 23.6813
109.632 75.3426 24.4125
149.576 63.7397 -30.6939
145.749 65.3524 -29.5347
-166.874 -45.6715 -47.4217
129.85 19.3506 -72.8371
-209.812 43.7046 -21.081
-206.951 46.1275 -19.3054
126.476 20.2028 -73.331
-61.9014 -0.403804 85.2919
-59.2107 2.53262 85.4889
[...]
POINT_DATA 10490
VECTORS F double
1.83558e-08 2.65464e-08 1.17137e-09
4.02087e-08 4.26202e-08 -3.19946e-09
1.10568e-07 3.67163e-07 1.80819e-07
3.1738e-09 1.84073e-09 -3.53442e-09
1.21013e-07 9.68712e-08 5.28405e-09
2.25235e-08 2.33652e-08 5.75361e-10
5.75504e-09 3.21718e-09 -6.38458e-09
-3.17612e-06 6.0779e-06 2.83172e-07
7.37722e-07 4.54506e-07 1.38996e-08
6.63542e-07 4.1232e-07 -1.11441e-08
5.57859e-10 3.10415e-09 -1.82087e-09
6.68745e-10 3.41424e-09 -1.18811e-09
9.2136e-08 1.31114e-07 3.66089e-08
-4.00122e-06 9.93537e-06 2.82966e-07
1.21676e-07 8.02435e-08 -1.28937e-08
7.37026e-06 1.39518e-06 -2.77652e-06
9.8843e-06 1.76264e-06 -4.63131e-06
-3.64942e-09 5.73505e-09 1.53067e-09
-4.89262e-09 6.58868e-09 1.97502e-09
-0.000114264 1.83891e-05 1.64359e-05
-0.000113327 1.99744e-05 1.73251e-05
-9.38302e-06 6.11884e-06 -8.32911e-07
-8.50537e-06 5.03015e-06 -6.84898e-07
5.7671e-09 4.57285e-08 -3.93187e-08
1.987e-08 5.08827e-08 -4.92912e-08
8.92199e-09 2.33042e-08 1.69499e-08
7.07412e-09 1.6513e-08 1.33341e-08
-1.51076e-08 4.90719e-08 6.25155e-08
-3.08197e-08 5.39055e-08 6.19967e-08
1.6079e-07 1.00557e-07 -1.01366e-07
3.07466e-07 1.43577e-07 5.46072e-08
2.15368e-07 1.35911e-07 -8.00773e-09
4.09102e-07 4.1396e-06 1.18325e-06
-2.16236e-08 2.19955e-06 6.41026e-07
-4.61657e-06 8.18569e-06 -1.01618e-07
6.76823e-10 8.82007e-10 2.03815e-09
0.000298834 8.83575e-05 0.000208082
0.000297843 9.10457e-05 0.000203275
9.21879e-10 2.16728e-10 -2.60583e-09
9.26784e-10 1.88147e-11 -1.33113e-09
4.83212e-07 2.18347e-07 6.35025e-08
1.42285e-09 9.2635e-10 2.42234e-09
7.2677e-07 4.67985e-06 9.08225e-07
-3.07787e-06 1.0027e-05 -9.25388e-07
-1.60328e-08 1.21002e-08 -4.44175e-10
-2.67738e-08 2.39154e-08 1.0417e-08
2.08332e-06 1.35888e-06 -1.03539e-07
1.95908e-06 2.61107e-06 3.99946e-07
-1.42036e-10 1.36754e-08 -1.17526e-08
3.31805e-09 1.86292e-08 -1.72415e-08
8.01123e-09 1.82894e-08 -7.58733e-09
1.53603e-08 2.13859e-08 -1.03599e-08
1.2076e-06 2.60387e-06 7.90687e-07
7.13755e-07 2.18286e-06 7.1644e-07
-4.11086e-10 1.17044e-09 2.46296e-10
-3.25691e-10 1.26276e-09 4.98707e-10
3.60542e-09 3.3813e-09 4.87053e-09
7.44701e-08 6.66721e-08 -6.13112e-08
-2.4073e-09 2.19745e-09 -2.20004e-09
-2.99933e-09 2.40711e-09 -2.69211e-09
-6.40229e-06 1.04286e-05 -7.28059e-07
-5.684e-06 1.41653e-05 -5.47268e-07
1.87641e-09 2.55095e-09 3.37538e-09
-3.38045e-09 9.71306e-09 1.73402e-08
-3.51615e-12 2.90776e-10 4.9701e-10
4.42116e-05 1.62209e-05 3.82388e-06
-1.46386e-10 4.72366e-10 5.74235e-10
-5.79431e-07 1.57549e-05 -2.65023e-07
1.67661e-06 1.1478e-05 -5.80552e-07
-4.23443e-07 2.75931e-05 2.32748e-06
-1.14749e-05 2.07204e-05 4.17067e-07
-6.37336e-06 1.46906e-05 4.93694e-08
-3.22323e-06 6.8057e-06 -7.11889e-07
2.23129e-10 9.47061e-10 1.3485e-09
8.66958e-11 8.60498e-10 -1.81575e-10
-1.52411e-10 8.14216e-10 -5.22637e-10
8.44987e-07 5.26685e-07 -1.80218e-07
1.91126e-06 4.6717e-06 -6.48434e-07
1.08743e-06 6.63036e-07 -2.13625e-07
4.69048e-11 8.06861e-10 8.58062e-10
-6.72325e-10 1.15352e-09 5.87577e-10
-2.38443e-10 9.92841e-10 1.69211e-10
7.51665e-10 3.79377e-10 1.22667e-09
1.62841e-09 8.00102e-10 3.93982e-09
7.31427e-10 4.74964e-10 2.45065e-09
5.82015e-10 7.39981e-10 1.45475e-09
3.11519e-09 3.08705e-09 7.33556e-09
1.30026e-07 1.11117e-07 -8.87335e-09
4.3147e-09 2.88225e-09 7.91811e-09
9.28729e-07 1.33e-05 -1.13902e-06
4.2139e-06 4.6179e-06 -3.17348e-07
4.06936e-06 5.59428e-06 -7.57205e-07
1.07318e-08 1.32344e-07 1.20307e-07
-1.32459e-08 2.11265e-07 1.86129e-07
1.22523e-05 7.73001e-06 4.46283e-06
1.47604e-05 6.20736e-06 1.51487e-06
9.11213e-07 5.23028e-07 -4.50571e-07
1.80207e-06 8.12932e-07 -4.69216e-07
0.000142786 7.39109e-05 6.60627e-05
8.36489e-06 3.84982e-06 1.0417e-08
7.37327e-06 2.08504e-06 -2.9575e-07
0.000148275 7.5035e-05 7.15689e-05
-4.31261e-06 1.91031e-06 -8.89835e-07
-4.67204e-06 2.27682e-06 -1.26122e-06
1.2383e-09 1.95666e-09 5.8428e-09
1.8462e-09 2.78753e-09 7.07778e-09
7.01155e-07 4.1685e-07 3.36652e-08
7.35712e-07 5.45306e-07 -7.91326e-08
9.60807e-09 1.29548e-08 -3.3172e-09
0.000192233 9.22444e-05 -0.000132731
0.00017101 8.19802e-05 -0.000130199
1.33735e-08 1.53168e-08 -4.07301e-09
2.98618e-09 2.0933e-09 -3.84701e-09
1.2965e-07 1.18158e-07 6.83923e-08
8.69396e-08 9.19351e-08 4.48625e-08
5.56607e-07 2.69572e-07 -9.12974e-08
5.13072e-07 2.52427e-07 -4.71334e-08
1.79965e-08 3.31991e-08 -1.16169e-08
3.97344e-08 4.7307e-08 -1.93303e-08
1.00775e-06 2.32443e-06 -6.04623e-07
1.59985e-06 1.04957e-06 1.18824e-07
2.71429e-11 -2.48982e-12 -7.10729e-11
2.04562e-11 -1.02968e-11 1.73411e-11
0.000102419 3.24028e-05 3.9154e-05
0.000106372 2.73635e-05 2.77736e-05
-4.88432e-09 1.23135e-08 -2.61117e-08
-1.92605e-09 1.74928e-08 -3.49129e-08
1.36182e-05 4.20047e-05 9.40379e-06
3.39307e-08 3.4238e-08 -5.02161e-08
3.28687e-08 4.94079e-08 -6.46664e-08
2.55935e-08 6.02018e-08 7.11241e-08
2.52744e-08 8.24129e-08 9.12883e-08
2.58991e-06 1.00875e-06 -2.0351e-07
1.74055e-06 2.777e-05 4.53414e-06
-6.17149e-06 1.69521e-05 2.8875e-06
1.021e-06 3.02527e-07 -1.89416e-07
1.57179e-07 5.41199e-07 3.21074e-07
1.27982e-07 6.65367e-07 3.7516e-07
-1.28104e-08 3.52646e-08 -5.74177e-08
-1.00625e-08 1.99361e-08 -3.29508e-08
3.84582e-08 7.98123e-08 -5.66569e-08
1.14821e-08 4.80677e-08 -3.35635e-08
-0.00013288 6.08899e-05 -8.16154e-05
-0.000131701 6.44734e-05 -7.91209e-05
3.01412e-06 1.09188e-06 3.58448e-07
2.31033e-06 1.38101e-06 -4.63561e-08
-2.47966e-06 1.17707e-06 -7.01317e-07
-5.98167e-06 7.20897e-07 1.05482e-06
-1.86592e-06 2.2785e-06 -4.00555e-07
8.23822e-07 1.06536e-06 3.68624e-08
3.37381e-07 4.25311e-07 3.24432e-08
8.88788e-05 0.000118813 0.000173494
-2.78339e-05 1.72797e-05 1.02741e-05
0.000115257 0.000102627 0.000157844
-3.1707e-10 4.73495e-10 -7.11925e-10
-1.59446e-10 3.88213e-10 -4.94123e-10
-8.21873e-05 0.000190927 0.000384537
-6.20678e-06 0.000160211 0.000298181
1.41611e-12 2.61396e-10 1.2361e-10
-3.55308e-11 2.14644e-10 1.78128e-10
3.08413e-07 3.00915e-07 1.6211e-08
3.24115e-07 3.50291e-07 -1.34283e-08
0.000103771 7.35647e-05 -8.26528e-05
7.86933e-05 8.13264e-05 -0.000103791
6.56304e-08 4.49017e-08 -1.84271e-08
-2.69942e-11 1.3739e-10 1.70385e-10
1.14818e-07 1.03424e-07 -1.01869e-07
3.28975e-08 6.73431e-08 -6.1884e-08
9.45708e-08 5.34281e-08 -6.19745e-08
6.97482e-09 9.29754e-09 6.91621e-09
3.31265e-07 1.70084e-07 1.90073e-08
3.36605e-07 1.69003e-07 -3.81969e-08
1.42122e-08 2.21297e-08 2.03089e-08
5.88266e-09 3.72747e-09 -6.35024e-09
4.00539e-06 1.07383e-05 -1.0083e-06
0.000151363 2.2627e-05 6.54187e-06
3.97961e-08 1.39007e-07 5.51166e-08
1.26158e-08 1.70227e-07 5.92568e-08
0.000114917 1.99358e-05 -3.86497e-05
0.000134377 2.46865e-05 -4.74108e-05
1.91092e-08 2.40279e-08 -1.07422e-08
1.56874e-08 3.08231e-08 -8.79622e-09
-0.00014529 6.32097e-05 0.000105606
-0.000103086 7.68641e-05 0.000118843
0.000346727 0.000139641 0.00055126
0.000154181 0.000178664 0.000619417
-0.000111198 4.33666e-05 6.37981e-05
1.72195e-07 1.28332e-07 2.30313e-09
3.82567e-07 2.37518e-07 -2.87804e-08
8.94353e-09 1.23706e-08 -6.28657e-09
4.10363e-07 2.73854e-07 2.08859e-08
8.85359e-09 1.44672e-08 6.23895e-10
7.51849e-09 1.21215e-08 2.48351e-09
2.61623e-07 -5.80685e-09 1.58602e-07
2.64823e-07 3.60722e-07 -2.90131e-07
2.10137e-07 4.19311e-07 -3.35678e-07
0.000211863 8.83188e-05 0.000154101
0.000201895 9.01293e-05 0.000174075
4.19123e-07 8.95278e-08 1.77347e-07
4.40407e-07 1.66719e-07 1.00496e-07
-1.9004e-07 9.87152e-08 2.84504e-08
-2.31804e-07 1.21889e-07 3.53339e-08
6.75807e-06 0.000139143 0.000197239
-3.2385e-05 0.000130884 0.000174786
3.55337e-07 3.20352e-07 1.45491e-07
5.43048e-07 2.56636e-07 1.73556e-07
8.05239e-08 1.55952e-07 5.16805e-08
1.49924e-07 2.33763e-07 9.0267e-08
1.21937e-08 9.08175e-09 -1.34648e-08
1.50328e-08 1.0063e-08 -1.46744e-08
-2.20308e-10 7.1287e-10 3.88768e-10
-3.4165e-10 1.0384e-09 5.61935e-10
9.03811e-09 6.50991e-09 -9.86319e-09
2.19256e-11 2.65701e-10 -4.68724e-10
3.26867e-11 4.22583e-10 -6.37372e-10
0.000160538 5.25718e-05 -4.59413e-05
5.81154e-07 3.89315e-07 8.58873e-08
5.0878e-07 3.70356e-07 7.30329e-08
0.000137759 3.62531e-05 -2.96382e-05
0.000153256 5.22957e-05 -5.29771e-05
1.67293e-10 5.36973e-10 -1.16448e-09
5.25834e-11 2.56202e-10 -5.62985e-10
2.77613e-08 6.51022e-08 5.31748e-08
5.89476e-08 6.84513e-08 5.81416e-08
3.35127e-06 1.85754e-06 1.0328e-06
4.05913e-06 1.93878e-06 9.42052e-07
7.62467e-11 1.94653e-10 8.34025e-11
6.04528e-11 2.55838e-10 1.31392e-10
1.42889e-07 1.08402e-07 -1.76265e-08
7.99825e-11 1.58844e-10 2.78613e-11
-7.2473e-11 5.0571e-11 -2.0324e-11
-3.17254e-11 1.66914e-11 3.53335e-11
9.17297e-08 6.69655e-08 -6.82247e-09
1.24631e-07 8.84136e-08 -1.24199e-08
-3.142e-11 2.0678e-10 5.87178e-10
-5.32082e-11 1.45715e-10 4.16639e-10
-9.24092e-11 1.14875e-10 1.78524e-10
-1.24766e-05 2.02973e-06 1.55054e-06
2.06363e-09 6.99287e-10 -2.04003e-09
-1.29521e-05 2.5849e-06 -6.33552e-07
2.1644e-06 7.34527e-06 1.19167e-06
1.76112e-06 4.74353e-06 7.27128e-07
3.1974e-08 7.61463e-08 4.17897e-08
1.9755e-06 6.71623e-07 -2.59063e-07
2.77498e-07 1.7379e-07 8.25148e-08
2.74494e-07 2.66376e-07 7.51987e-08
6.59931e-08 9.21048e-08 5.23308e-08
-2.22332e-08 1.30375e-07 1.24566e-07
-2.3177e-08 1.51761e-07 1.34064e-07
2.19872e-09 6.05479e-10 -2.48477e-09
1.34001e-08 1.89499e-08 -1.26243e-08
4.33685e-08 3.52884e-08 -2.82608e-08
1.07264e-05 3.74448e-05 6.26292e-06
3.08185e-10 1.73158e-10 8.68779e-10
1.37931e-10 2.20666e-10 7.59769e-10
1.22714e-06 1.14607e-06 -1.57833e-07
1.25146e-06 1.41455e-06 -6.8168e-08
1.99545e-06 1.25462e-06 -6.49178e-07
1.73258e-06 1.02895e-06 -3.99363e-07
8.9647e-07 7.38475e-07 2.02819e-07
6.3511e-08 5.1226e-08 -1.00137e-08
7.18733e-08 5.54038e-08 -3.49312e-09
4.92338e-08 4.08389e-08 -2.52334e-08
-9.43026e-10 1.93695e-09 5.40488e-10
-1.06674e-09 2.40432e-09 2.05891e-10
-1.50448e-09 3.07702e-09 1.24122e-10
7.83006e-09 4.56032e-09 -1.05038e-08
8.63554e-09 6.11247e-09 -1.21401e-08
1.21622e-08 1.26013e-08 -2.16677e-08
4.91722e-10 1.75175e-09 -2.49454e-09
4.08292e-08 4.88621e-08 -2.78248e-09
6.56193e-06 1.45468e-05 -1.02612e-06
1.16684e-09 3.04978e-09 9.26842e-09
-5.40471e-11 2.67863e-09 8.44256e-09
2.30795e-06 3.39357e-07 5.75435e-07
6.43361e-06 2.20813e-06 -1.90405e-07
4.54677e-08 5.45555e-08 -2.791e-08
5.41465e-08 6.35282e-08 -3.06652e-08
5.46228e-07 1.50907e-06 1.04095e-07
2.25823e-07 2.50246e-06 1.87716e-07
3.48665e-09 3.92962e-09 5.72301e-09
2.90807e-09 4.99753e-09 6.04537e-09
1.3018e-09 2.28928e-09 -3.69092e-09
8.91477e-10 1.10078e-09 -2.11558e-09
4.38309e-10 2.63183e-10 9.06976e-10
3.03152e-10 4.09455e-10 9.6654e-10
3.02656e-10 1.4975e-09 -2.3383e-09
2.39837e-05 1.06662e-05 2.54055e-06
7.29203e-05 7.10605e-05 -5.94941e-05
2.28452e-09 6.69617e-08 8.34896e-08
-1.38923e-08 6.89606e-08 8.14681e-08
1.58518e-06 2.9514e-06 -5.15699e-07
1.54553e-06 3.56803e-06 -4.64361e-07
0.000440121 8.77391e-05 0.000318197
0.000460257 8.80781e-05 0.000273687
7.00603e-05 7.35085e-05 -6.36018e-05
2.37617e-05 1.82645e-05 9.08784e-06
-2.06403e-06 2.17946e-06 -4.86027e-07
-2.29387e-06 2.11284e-06 -5.00747e-07
1.45566e-05 1.01029e-05 3.72601e-06
9.82038e-05 9.04909e-05 8.90806e-05
8.26828e-05 6.36044e-05 6.09643e-05
5.70186e-11 1.88971e-12 -1.31294e-10
1.56372e-11 8.74757e-11 -3.07611e-10
-1.72147e-08 2.61372e-08 3.10104e-08
9.40327e-05 5.59094e-05 4.45271e-05
-6.10321e-07 2.12704e-07 -6.19977e-08
-4.31678e-07 1.96915e-07 4.17155e-08
-1.58483e-07 2.25129e-07 -1.87937e-07
-4.20571e-08 1.26102e-07 -1.19052e-07
-5.47325e-07 2.17838e-07 -4.09167e-09
1.74714e-06 1.29984e-05 -6.02664e-07
-3.83802e-11 1.89844e-10 -5.77558e-10
-1.05148e-10 2.50701e-10 -7.73337e-10
1.90692e-10 1.70802e-09 1.16305e-09
8.85728e-10 1.99484e-09 1.74954e-09
-4.30117e-09 5.88841e-09 1.38779e-09
-7.60615e-09 9.05271e-09 5.93588e-10
-9.74855e-09 1.0021e-08 3.32273e-10
-7.05111e-11 1.53465e-09 -1.09422e-09
7.13083e-10 1.45807e-09 -1.66204e-09
5.4904e-08 5.54463e-08 -3.84817e-10
6.46281e-08 5.1872e-08 -9.73507e-09
7.82753e-08 5.90255e-08 -9.2052e-09
-3.75262e-10 1.648e-09 -2.1002e-10
1.10146e-06 5.71277e-07 -4.96708e-08
-1.5158e-05 1.83148e-05 1.20994e-05
-8.98439e-06 1.87375e-05 1.19376e-05
-5.10373e-06 1.05875e-06 2.34722e-07
-4.29073e-06 4.19356e-07 1.30777e-06
1.66718e-06 9.00254e-07 -1.66858e-07
1.45551e-06 4.8023e-07 2.48975e-07
1.32429e-10 3.27572e-10 1.83271e-09
-2.86374e-06 9.75e-08 -2.00043e-06
-5.07418e-06 6.0849e-07 -1.83609e-06
5.56134e-10 2.97773e-10 1.51451e-09
-1.05018e-09 1.26842e-09 1.86769e-09
1.76209e-10 1.34336e-10 8.95532e-10
2.01108e-07 2.8174e-07 2.69048e-08
1.18107e-07 2.52441e-07 3.23987e-08
3.26798e-11 1.41078e-10 5.06551e-10
1.41494e-07 9.80818e-08 -1.095e-07
4.80027e-08 5.94392e-07 2.81236e-07
-5.75129e-06 9.99895e-06 1.76291e-06
-5.73949e-06 8.69892e-06 1.26179e-06
-4.68053e-08 5.13237e-07 2.7109e-07
2.24016e-07 1.35076e-06 -1.56782e-07
3.73997e-07 1.43161e-06 -2.11075e-07
1.16728e-07 1.76859e-07 -1.14365e-09
-3.55332e-11 1.98765e-10 5.31671e-10
2.07672e-06 3.49684e-06 -1.24377e-06
2.40441e-06 2.04944e-06 -2.94866e-07
4.05895e-07 2.09483e-06 -8.19499e-07
-3.61326e-10 3.76685e-11 -7.00436e-10
0.00011276 0.000100226 0.000142506
9.6911e-05 0.000102933 0.000135414
-4.02055e-10 1.00675e-10 -1.10439e-09
7.5079e-09 9.11313e-09 8.0666e-09
0.000176375 0.000104119 -0.000128314
1.12082e-08 1.27025e-08 1.13833e-08
1.64154e-09 1.21876e-09 2.84399e-09
2.93934e-09 1.06838e-09 3.23808e-09
3.60339e-07 2.66132e-07 -1.37583e-07
2.50733e-09 1.56131e-09 3.34902e-09
5.68735e-06 1.47896e-05 -2.83999e-06
9.36722e-06 7.02601e-06 -4.98232e-07
1.50733e-09 2.4915e-09 3.89892e-09
-8.45306e-11 1.52958e-09 8.34999e-10
-1.24935e-09 1.19066e-09 1.93954e-09
-1.0679e-09 5.72703e-10 1.23767e-09
2.20677e-05 4.81279e-06 -2.45923e-06
2.82261e-05 7.00671e-06 -1.08054e-05
-5.77076e-06 5.23236e-06 2.99149e-07
-4.853e-07 1.12783e-06 1.33754e-07
2.38912e-06 8.86015e-07 -2.81498e-07
-3.72479e-08 3.85235e-08 7.56975e-09
-2.1662e-08 3.97441e-08 2.97453e-09
-1.01014e-05 1.40255e-06 1.48282e-06
-1.18812e-05 3.97893e-06 -5.74884e-06
-4.52915e-06 1.33148e-06 6.34611e-08
-5.50039e-06 8.54791e-07 -1.43073e-06
-1.11599e-09 1.15274e-08 -1.06142e-08
-1.26514e-06 1.16973e-06 3.48684e-08
2.59333e-07 1.2527e-07 -5.58019e-08
3.34953e-07 1.43339e-07 -9.63882e-08
-1.36209e-06 1.41035e-06 1.01196e-07
2.25864e-06 9.97621e-06 2.4735e-07
4.08983e-06 9.28132e-06 7.11497e-08
2.22614e-06 7.17263e-06 3.4054e-07
1.9661e-10 1.92106e-10 7.32236e-10
2.35339e-05 5.0771e-06 4.87711e-07
2.71763e-05 5.92708e-06 -5.68678e-06
-1.08253e-06 1.81136e-05 -3.04132e-06
1.24355e-10 5.52892e-11 3.24205e-10
4.68635e-06 8.86644e-06 1.90677e-07
7.25282e-06 3.15249e-05 1.76351e-05
1.59561e-05 1.54749e-05 6.12999e-06
3.89299e-05 3.16421e-05 1.4337e-05
9.87535e-08 1.40063e-07 4.50208e-08
8.97654e-08 2.22797e-07 4.03075e-08
-3.47361e-07 3.20393e-06 3.33243e-07
7.78587e-09 1.91726e-06 2.11656e-07
4.40012e-07 1.97247e-07 6.63413e-08
2.28814e-07 2.45357e-07 7.07519e-08
2.97267e-06 1.02065e-06 -1.11387e-08
4.36058e-06 1.8739e-06 7.66529e-07
-8.23982e-10 3.44652e-10 1.61053e-09
-8.81818e-10 2.21668e-10 1.36086e-09
4.69647e-09 2.31659e-09 -7.66085e-09
2.62094e-09 1.81553e-09 -5.26127e-09
1.3197e-09 1.77534e-08 2.81984e-08
9.68776e-10 1.05546e-08 2.0226e-08
6.67908e-10 1.38659e-08 2.40726e-08
1.25241e-07 5.86393e-08 5.42336e-08
1.86566e-07 1.10845e-07 -2.05671e-08
2.62874e-07 1.30278e-07 3.85177e-08
3.67621e-09 5.74013e-09 -7.17727e-09
1.49831e-09 3.10915e-09 -3.85653e-09
5.93553e-09 4.49312e-07 -2.66692e-07
8.1775e-08 3.09419e-07 -1.92163e-07
7.51185e-08 9.57102e-06 -1.80092e-06
-1.85169e-06 7.34533e-06 -1.41812e-06
3.07254e-10 2.08818e-09 -2.41596e-09
1.8539e-07 2.2859e-07 -9.5685e-08
-2.93396e-09 2.65001e-09 2.46604e-09
6.80433e-10 1.24571e-09 -2.06651e-09
-2.75918e-06 1.10323e-05 -4.50583e-07
-9.34477e-09 3.70138e-07 -2.76156e-07
-2.83563e-08 4.48549e-07 -3.20275e-07
0.000107705 0.000104435 9.61649e-05
2.41205e-06 1.10359e-06 1.16155e-06
0.000281402 2.51406e-05 -3.6653e-05
0.000322703 2.88575e-05 -9.90888e-05
0.00020879 3.3415e-05 -0.000147562
0.000269669 2.94627e-05 -9.13539e-05
2.57338e-06 1.12797e-06 1.42284e-06
0.00010878 8.53897e-05 7.48787e-05
9.36694e-05 8.82313e-05 7.25814e-05
5.9077e-10 8.50534e-10 -1.72628e-09
-6.32058e-10 2.5225e-10 -2.10805e-09
-3.44453e-10 1.42826e-10 -1.63212e-09
9.2604e-10 1.00316e-09 -2.16388e-09
5.45136e-10 5.70435e-10 -1.36396e-09
8.90905e-08 9.37384e-08 9.85439e-09
8.60558e-08 1.49363e-07 6.17101e-08
-2.04196e-06 4.35424e-07 3.66979e-07
-7.75989e-05 3.10394e-05 -2.97042e-05
-6.40624e-05 4.69086e-05 -5.34684e-05
-1.22171e-06 2.42266e-06 -6.69991e-07
5.11085e-08 8.87626e-08 -5.92558e-08
1.3819e-07 1.23636e-07 4.44616e-08
6.46398e-08 1.75321e-07 -9.3175e-08
8.20159e-08 1.24392e-07 -7.74404e-08
7.58925e-09 1.36377e-09 6.16567e-09
6.79851e-09 5.12399e-09 1.0901e-08
5.667e-09 3.28777e-09 8.08953e-09
3.04943e-06 3.72988e-06 -2.84617e-07
3.53308e-06 4.95966e-06 -3.01488e-07
-0.000113345 5.22197e-05 -7.7264e-05
-1.64175e-07 3.10866e-07 1.05211e-09
1.2387e-09 7.1532e-09 1.35952e-08
-5.19635e-09 1.04321e-08 1.86861e-08
1.50548e-06 3.87546e-06 -4.3794e-07
1.77405e-06 3.41353e-06 -4.35784e-07
-1.04073e-07 1.50439e-07 -8.02584e-09
1.33063e-08 1.78677e-08 -3.17177e-09
-1.76711e-07 2.19167e-07 -2.67029e-08
-8.62173e-05 9.78926e-06 2.52995e-06
-1.38889e-08 1.17923e-07 -6.08455e-08
-3.31206e-08 1.11352e-07 -6.1675e-08
-3.38908e-05 -1.2692e-06 -7.69406e-06
7.07331e-07 5.3204e-07 -1.10848e-07
-6.54363e-05 2.49021e-05 2.73693e-05
-2.06269e-10 2.10727e-09 -4.60086e-10
1.73189e-06 6.20872e-07 1.71033e-07
1.51847e-06 5.82273e-07 1.46377e-07
9.59873e-11 2.39521e-09 -1.03625e-09
1.06772e-10 1.93009e-09 1.17637e-09
1.54932e-08 2.12009e-08 -5.35508e-09
-4.40637e-11 1.92081e-10 -3.40439e-10
1.56413e-11 2.16321e-10 -5.01855e-10
1.90018e-07 1.40698e-07 2.99495e-09
1.63379e-07 1.32792e-07 4.36226e-09
3.45852e-06 3.06697e-06 1.38896e-06
0.000108861 0.000121174 0.000154985
0.000117931 0.000128035 0.000148432
7.19359e-10 5.61299e-11 -9.7963e-10
6.99886e-11 1.17712e-10 -1.7601e-09
6.93552e-05 9.61251e-05 0.000107281
1.24585e-07 5.45877e-08 4.16083e-08
1.12799e-07 7.31885e-08 1.90456e-08
1.7923e-11 1.22366e-09 8.02572e-10
-1.77913e-08 1.18667e-07 1.05492e-07
-2.14436e-08 1.39048e-07 1.13376e-07
-4.77631e-07 6.72989e-06 6.05984e-07
-9.48026e-08 6.94486e-08 4.92086e-08
1.01314e-08 1.59959e-08 1.78959e-08
-0.000154913 7.63914e-05 -0.000116739
-0.000118022 6.27217e-05 -8.90558e-05
-9.14869e-07 6.36866e-06 5.87894e-07
2.16102e-06 2.22611e-06 -3.86834e-07
4.30293e-08 5.02586e-06 7.01966e-07
3.15969e-10 2.08972e-09 -5.68128e-10
8.79157e-07 1.35293e-06 -2.65005e-07
-2.99789e-05 9.03372e-05 -8.81513e-05
9.88962e-07 8.45748e-07 -1.38405e-08
8.65198e-07 4.88512e-07 3.1304e-07
4.93101e-09 8.24421e-09 -4.62821e-09
-2.13352e-10 3.36497e-10 3.25648e-10
3.34311e-10 2.1538e-10 -9.7107e-10
-8.81109e-11 3.40358e-10 -1.85162e-09
-3.2257e-05 6.5684e-05 -6.45008e-05
-2.77317e-10 5.22059e-10 5.84387e-10
1.17351e-06 4.33707e-07 -1.86583e-07
-9.95423e-12 -4.62367e-12 1.16424e-11
1.67484e-08 2.14138e-08 2.55511e-08
5.71632e-10 3.83424e-10 1.08526e-09
8.04374e-05 8.28443e-05 -5.72756e-05
1.81882e-07 1.00973e-07 -9.36267e-08
4.58133e-05 9.17285e-05 -7.43456e-05
0.000791232 8.47647e-05 -0.000576415
0.000274383 0.000113028 -0.000662303
3.19404e-09 7.52073e-09 8.31692e-09
-0.000255659 9.78579e-05 -0.000245841
4.94075e-09 8.97266e-09 9.33689e-09
-8.15093e-08 6.52486e-08 -3.82036e-09
-7.7418e-08 5.19175e-08 -1.32392e-08
6.37075e-09 1.37542e-08 1.29196e-08
8.27462e-07 1.20465e-06 -3.09086e-07
6.37025e-10 6.70013e-10 -1.45978e-09
1.63112e-07 9.77729e-08 8.23339e-09
0.000103935 0.000137347 -0.000147655
1.42052e-07 7.94176e-08 2.67386e-08
1.67225e-07 7.52989e-08 6.12512e-08
1.34014e-07 6.70898e-08 4.38733e-08
8.25801e-05 0.000132694 0.000189555
-9.43855e-08 5.18467e-08 -1.0234e-08
-7.92741e-08 4.47972e-08 -2.13771e-08
-3.4775e-07 1.8794e-07 -4.83204e-09
-5.66454e-07 3.93222e-07 -6.55311e-08
8.02331e-05 0.000128554 0.000178776
2.02376e-05 6.04311e-06 -7.34155e-08
5.46494e-06 1.28244e-05 -6.70973e-06
5.52047e-06 1.05076e-05 -5.03364e-06
0.000552155 9.78381e-05 -0.000542616
0.000576641 8.35046e-05 -0.00039263
1.0758e-05 5.45596e-06 -1.27508e-06