# vtk DataFile Version 2.0
S, Created by Mohamad Ibrahim Cheikh
ASCII
DATASET UNSTRUCTURED_GRID
POINTS 2818 double
-98.3526 -23.8912 -13.4504
-101.632 -21.5089 -14.4492
-57.1228 -30.9585 24.0432
-52.8473 -31.4594 24.5841
-7.96615 3.14847 -43.7986
-16.8913 35.9655 -24.6485
-11.644 -7.73848 43.1221
3.65528 34.2411 -27.6027
3.17792 36.6533 -24.3166
122.563 -6.871 -7.04901
121.558 -4.53175 -10.3147
124.285 1.62842 -6.49519
122.536 -0.163906 -9.88285
-9.8391 36.5368 -24.2737
-6.79012 37.5342 -22.8372
-12.2726 11.6392 -42.2148
-5.62051 1.8146 -43.9186
-96.4156 9.17994 26.7137
33.4834 -8.65302 41.5194
-95.0156 12.3503 26.0418
-78.3062 -15.1395 30.9204
-74.4629 -15.5523 31.8635
-84.9017 25.4295 -20.1699
-88.675 23.6078 -20.3954
-26.0618 7.0889 42.4569
-67.9214 -12.8581 34.7255
-71.7625 -12.8278 33.7779
11.9087 6.48564 -43.3194
-66.1546 -13.0296 -35.0773
-62.9 -11.3024 -36.385
-55.5976 -32.7191 -22.0684
-58.678 -30.864 -23.7038
-100.386 1.77367 26.4401
-97.0376 1.21695 27.9585
-43.4403 -19.4273 36.4355
-40.4043 -20.9155 36.0371
18.0708 -8.77015 -42.651
-30.9111 -22.9307 35.9611
-34.406 -23.3876 35.2717
9.86507 -15.8528 -40.8995
6.3713 -17.0295 -40.5096
-49.0863 -35.6051 19.3207
-45.2683 -35.069 21.3372
-59.7284 33.2118 -19.9049
-63.1073 31.7663 -20.96
-74.1033 33.7562 11.1453
-77.2233 32.2615 12.8487
-86.5623 31.2646 6.41479
-85.4238 32.1715 2.75494
-79.1626 9.15885 -32.9375
-76.6136 11.3598 -32.9899
-111.113 12.0956 16.678
4.09448 6.67807 -43.4667
-107.59 14.86 17.2622
39.2762 -27.1531 -31.7781
41.352 -24.8981 -33.2675
-94.6818 23.8923 16.3589
-96.7194 21.7691 17.7992
-62.5614 -33.1722 18.8791
-64.6228 -34.1037 16.1758
-64.749 -27.3572 -25.9673
-64.9688 -30.1496 -22.5883
-81.7734 32.2003 -8.96992
-85.361 30.6747 -10.1475
-11.7361 -17.8148 40.0221
-14.7681 -15.8433 40.7221
-64.7188 -35.3875 13.0736
-64.9633 12.5093 -35.5364
-62.5962 -36.7494 10.2841
-62.0292 -31.7544 -21.3681
-79.6689 -26.1266 -21.8247
-83.2186 -19.7657 -26.4092
21.9636 25.0751 -35.3296
24.7584 22.6316 -36.7255
-79.9854 -21.0636 -26.6281
-64.1626 -18.2413 -33.1546
50.9199 -16.6837 -36.6089
47.5803 -14.8726 -37.9162
78.7686 33.1442 -8.82296
81.984 32.6025 -7.08346
-67.0168 -16.2201 -33.5118
-106.705 -6.92281 -22.2281
-105.654 -10.4681 -21.4422
-91.1886 21.9266 20.9086
-88.5509 24.5294 19.3469
-81.1948 -23.6221 -23.8927
-75.9167 -26.7332 -22.7097
-69.6694 -2.29388 -36.5579
-98.6996 -1.54196 -27.2204
-66.4625 -7.04698 -36.6815
-67.4511 -22.641 -29.4342
-64.6446 -21.1298 -31.2715
-66.3118 -3.73271 -37.1982
-99.8678 25.1657 -9.03412
-96.607 25.5997 -11.7483
29.8525 -14.0459 40.3684
26.527 -15.824 39.9931
-96.8467 -27.7652 -4.09652
0.899709 12.1353 -42.2923
0.603244 8.72538 -43.1257
-93.2364 -28.8718 -6.17473
-90.181 -30.3852 -4.13027
91.8319 11.2045 27.8925
88.1911 11.2473 29.2792
36.7949 34.2979 -24.3701
40.5044 33.591 -24.6329
-104.429 -4.0026 -24.1829
-105.35 -0.159962 -24.0245
-73.2057 30.1912 -19.1931
-70.5495 27.8738 -23.4454
-98.8813 24.1491 12.4802
-102.058 22.1294 13.0797
21.8743 -10.2161 -42.1076
20.8202 -36.2718 23.8178
24.6098 -34.8926 25.3842
70.4955 -6.34925 -35.8783
73.914 -6.51725 -34.9951
-41.7583 -3.26687 -41.3744
-45.8278 -2.43114 -40.9019
-112.186 19.4182 -4.25078
-108.235 21.7737 -5.25898
-49.243 -37.2867 15.774
-45.7909 -38.4232 14.2458
-113.458 16.3707 -9.59114
-109.995 18.3971 -10.7825
103.476 -21.3543 -13.0034
107.055 -19.1441 -12.8977
-69.6578 30.3548 -20.5068
-123.699 6.44967 4.58748
-111.067 -12.3318 -16.542
-123.107 8.66998 2.31214
59.1959 -22.0611 -31.942
57.7505 -25.192 -29.8839
-114.41 16.9462 6.80165
-69.3953 15.8588 -33.0894
-111.555 19.212 6.58046
-64.9086 -9.66211 36.4257
11.5567 12.7523 41.9169
7.86879 14.999 41.2729
30.2099 39.6076 15.9844
-58.0295 -3.07437 38.9137
-57.3908 -7.49698 38.4258
-25.2395 -26.6574 -33.8731
-10.3461 -42.48 10.8788
-7.2943 -43.0214 8.8682
-22.9476 -23.8896 -36.0668
-119.247 13.0719 4.91828
-125.114 2.73443 3.47326
-121.148 11.4717 2.74187
56.4793 1.54329 39.282
-17.4732 -31.2597 30.3554
-6.49699 -19.1552 -39.5463
-11.4357 -15.87 -40.8428
-12.8553 -27.9706 33.6662
-18.9244 9.79268 42.3823
-23.3603 9.75401 42.1195
121.308 11.1707 3.09488
118.571 13.8856 4.68166
117.084 15.8905 2.2662
-30.0829 -33.8495 26.0656
-16.1107 -0.754376 43.6309
4.68117 -9.24015 -42.9876
3.02588 -31.9689 30.2137
-56.0424 39.3729 1.11849
-52.1556 40.0335 0.530218
-25.261 -34.6708 25.6088
18.8698 -39.7464 17.6812
14.3279 -39.7578 18.171
11.5602 -38.6097 20.7107
-102.025 -25.2336 4.98747
-105.537 -23.4813 4.58172
43.0523 29.0339 29.4297
40.5437 31.4401 27.318
-0.322662 37.9081 -22.3375
-59.7161 37.1079 -11.0641
-55.5457 37.9211 -10.9658
-87.6429 -4.33305 31.2538
-10.0563 -19.0929 -39.4852
-88.3261 -8.52794 30.1353
-90.968 -10.2607 28.5934
-35.088 -16.5335 -38.8833
-28.8312 -12.9337 -40.8283
-31.1308 -16.4798 -39.3162
-58.1802 20.6017 -33.1233
29.4419 -28.9136 31.5258
25.4157 -27.9269 32.8178
28.8167 5.16465 42.5166
73.3077 34.9265 -7.62858
70.6954 35.9415 -5.68529
-12.9037 -38.416 20.972
-9.82688 -37.2292 23.1984
-54.9788 22.6033 -32.4811
-51.9057 21.6914 -33.6991
-116.925 -16.118 1.54655
-119.65 -13.5326 -0.365845
-114.857 -17.887 -0.971421
-78.3683 25.6503 -22.9378
-74.5323 25.466 -24.6449
-81.9119 23.6492 -23.564
-40.8505 -13.4051 39.3954
-37.4718 -13.2438 39.8584
3.98791 -34.5058 -27.2654
11.4411 -33.3394 -28.4334
8.42748 -35.0405 -26.4475
53.4434 -31.4789 -24.4007
57.62 -31.1849 -23.6014
61.9027 -33.4472 -18.6585
63.101 -34.6143 -15.8228
65.2619 -31.1145 -21.1291
68.9306 -30.7959 -20.1468
108.385 4.10363 21.9302
104.605 5.51968 23.7882
60.6786 -29.2013 -25.1497
-3.21359 42.9471 -9.50167
-4.81458 43.6564 -5.22309
-6.33524 43.1451 -8.34208
-61.1808 -25.6689 -28.6153
-61.1095 -22.5426 -31.1549
-14.5131 39.5156 -18.6743
-83.7214 4.36346 32.5394
-14.3389 37.7539 -22.0335
50.3429 -5.22995 -39.9795
53.5713 -3.70797 -39.6344
-10.9261 38.3911 -21.1544
-86.7376 -31.0072 7.31164
-80.2252 -32.5888 9.27325
-82.9077 -32.3018 7.14477
-41.0591 35.6257 21.4571
-29.5579 -19.1865 38.2219
-43.941 33.7188 23.7203
-47.7512 32.8341 24.0574
9.24487 25.4379 35.7554
12.5308 20.2887 38.7962
13.0785 23.9679 36.6142
-78.2111 1.45548 34.4235
-76.3929 -1.72769 34.9074
-52.2469 -22.7215 -32.9474
-54.6506 -19.2164 -34.6564
15.4476 -11.4071 -42.1505
-52.1978 -15.9697 -36.7068
-28.1762 -40.3378 -14.5487
-24.0188 -40.3697 -15.3512
26.0593 10.726 41.6871
-31.4411 -39.1255 -16.8572
15.4431 -43.4039 4.78592
12.3871 -43.105 7.69229
-40.1251 41.0637 -7.25629
-44.4157 40.5491 -7.08823
3.96191 28.9391 -33.1151
7.44236 29.5147 -32.5285
8.91173 31.539 -30.5216
-6.77984 32.3238 29.7581
52.4427 37.8148 13.0127
-1.54773 34.5055 27.2961
-74.1733 -31.1571 17.0781
-3.49699 32.733 29.3777
-2.35691 17.7614 -40.2474
0.887212 19.0276 -39.6718
8.93021 -8.61565 -43.0349
87.9683 31.3338 2.60295
90.9498 30.1413 3.84375
9.38431 1.83917 43.8387
18.601 -23.9007 -36.3647
45.5181 -40.7587 -4.5892
14.3568 -24.8345 -35.9724
30.1451 -10.5039 41.4055
109.415 2.23311 -21.5713
115.267 2.25109 -17.4428
112.346 0.563567 -19.7585
14.4469 33.6717 -27.8687
18.0898 34.1424 -27.0228
21.2559 32.1762 -29.0753
-62.7189 -17.0667 34.1046
40.5587 9.56466 40.5354
37.3932 11.5959 40.3776
-66.4675 -17.1865 33.1622
-25.7061 -18.5646 38.8646
123.735 5.56288 -5.53284
121.353 8.6409 -7.63897
-24.3946 -15.3603 40.3386
-73.6122 -24.9592 -25.4876
-70.2396 -26.7544 -24.8229
7.70046 -41.2724 15.0111
0.764929 -41.4819 14.6689
4.37212 -42.0656 12.8118
79.4705 22.2999 -25.7973
76.1364 20.5978 -28.3201
76.4912 17.5023 -30.2216
39.1478 -32.5341 26.2659
43.0856 -31.8637 26.333
15.0372 40.2276 -17.031
75.8121 -30.0172 18.2016
73.1845 -33.4783 12.6281
73.1416 -31.6923 16.6322
71.0116 -26.132 -25.2139
74.0342 -23.8402 -26.3931
-6.25453 38.6621 20.8914
-8.11477 34.8956 26.6503
-5.82203 36.8163 24.0085
42.4912 33.5689 24.2504
40.0134 35.6843 21.6012
36.2695 35.1491 23.2268
-2.08344 29.8725 32.2971
0.917581 30.821 31.4001
-80.7273 7.16479 32.9666
18.5402 42.0779 -11.1069
-60.2077 34.8616 16.6392
-61.9931 35.8352 13.4657
-66.4621 34.6108 14.0461
104.803 22.1578 10.0151
108.02 20.2805 9.80537
109.738 20.2193 7.26797
-59.5009 38.1466 6.88381
26.5529 -8.93781 42.0689
-63.182 37.6517 5.44194
30.7096 27.7888 32.3778
34.7736 28.2399 31.4717
-31.5234 32.4023 27.6483
18.8171 40.7666 -15.1899
-27.8908 33.1686 27.2141
-12.0158 8.19179 -43.0258
-112.299 -13.4708 14.5105
-82.4298 27.7706 -18.246
120.332 -10.8611 6.72757
121.216 -5.86377 10.1337
-16.5723 -25.693 35.2455
122.274 -7.58625 6.92833
24.9544 -43.1249 -0.011608
21.1581 -43.3694 0.532522
18.7426 -43.4427 -2.39298
-87.6941 -31.3897 3.02728
-49.5186 -9.44124 -39.3275
-49.1564 -5.32523 -40.1473
-90.7232 -30.4599 0.711914
71.5574 5.52904 35.7565
-110.242 -16.5156 13.2403
42.3291 -35.5117 21.3437
-30.3759 -8.92495 -41.7538
49.7588 -33.3715 22.7863
45.5882 -33.8137 23.1989
6.56877 30.1519 31.9622
29.7153 35.0256 -24.5174
26.1757 34.8535 -25.2457
3.42005 28.9599 33.1043
31.887 -9.09808 -41.5781
9.78735 28.6005 33.2608
95.3036 -25.2716 13.6138
39.7333 -6.33407 -41.2625
42.3052 -37.3259 -17.9906
45.7078 -37.7924 -15.8731
100.238 -21.2449 15.9535
98.9217 -23.7311 13.2208
-108.098 7.91752 21.0405
-111.772 8.31274 18.3681
-103.084 -24.5639 -5.62368
-99.7367 -25.8564 -7.04153
-105.676 -22.5225 -7.84226
-12.6291 37.1726 23.1229
-20.9646 33.2997 27.8087
-14.245 34.9192 26.3022
-17.24 33.1486 28.2981
-11.4732 -39.4248 -19.1198
-16.0027 -37.3537 -22.5688
-15.2592 -39.2063 -19.2447
-78.8717 -5.55873 33.8155
-73.7771 -33.7574 11.4036
-77.4014 -9.04742 33.4764
10.3797 -4.67457 -43.6
-12.0338 34.3403 -27.1848
11.5891 -22.6764 -37.4878
7.99302 -23.4032 -37.1546
-17.4162 -41.9343 11.848
-44.5892 41.0495 2.7433
-21.1078 -42.118 10.3695
-18.9207 28.4415 -32.9128
-16.1365 33.5014 -27.9603
6.36417 41.1224 15.4916
9.28064 39.9697 18.1073
-18.4936 31.3842 -30.1523
-84.1494 -32.6856 0.840688
-82.9955 -32.9271 -2.91062
-85.793 -31.5448 -6.30753
-45.3805 -36.7496 -18.2574
34.7623 -38.0872 -18.369
25.7628 -37.8421 -20.56
30.9146 -39.3235 -16.5123
27.0517 -39.2002 -17.5997
-33.6501 38.153 18.4856
[...]
POINT_DATA 2818
VECTORS F double
-1.5639e-07 8.85101e-08 -1.72091e-08
-1.5028e-07 1.00304e-07 -1.9899e-08
-1.80908e-07 6.61659e-08 3.2575e-08
-1.79101e-07 6.39474e-08 3.46949e-08
-5.81955e-08 5.04642e-08 4.92353e-09
2.30372e-07 7.13696e-08 8.48095e-08
-7.81068e-08 4.83761e-08 6.09925e-09
1.35585e-07 3.63057e-08 4.72351e-08
1.87998e-07 3.61149e-08 5.74452e-08
-4.38239e-08 -9.5831e-08 1.15448e-10
-3.01004e-08 -9.15704e-08 -3.20217e-09
7.81719e-09 -9.7517e-08 -6.14325e-09
-3.60225e-09 -9.56058e-08 -3.8867e-09
2.13963e-07 6.06681e-08 8.06993e-08
2.147e-07 5.75029e-08 8.66938e-08
-8.20853e-09 7.12933e-08 1.99486e-08
-6.32856e-08 4.01035e-08 2.64852e-09
7.91116e-08 1.30387e-07 -9.84838e-09
-6.87196e-08 -3.73148e-08 -9.9173e-10
1.10403e-07 1.19356e-07 -7.28735e-09
-9.17521e-08 1.18641e-07 2.96419e-08
-8.98115e-08 1.19866e-07 3.28096e-08
1.76756e-07 1.01931e-07 3.74192e-08
1.72454e-07 1.04543e-07 2.92114e-08
1.32129e-08 9.78511e-08 -1.53448e-08
-7.63837e-08 1.24478e-07 2.78002e-08
-7.95051e-08 1.21083e-07 2.53036e-08
-3.64508e-08 -2.39631e-09 -1.58564e-09
-9.49565e-08 1.04123e-07 -1.67518e-08
-9.47759e-08 1.10423e-07 -1.42418e-08
-1.92249e-07 5.51326e-08 -2.2443e-08
-1.87207e-07 6.43013e-08 -2.69874e-08
2.92982e-08 1.3166e-07 4.78692e-09
3.08294e-08 1.35284e-07 7.21208e-09
-1.31083e-07 8.86992e-08 2.81603e-08
-1.3371e-07 7.84198e-08 2.71599e-08
-9.78326e-08 -1.53612e-08 -1.91629e-09
-1.46293e-07 6.431e-08 2.5612e-08
-1.48824e-07 6.46047e-08 2.50641e-08
-1.28352e-07 6.26154e-11 -3.8146e-09
-1.31826e-07 4.04655e-09 -4.2395e-09
-2.01701e-07 4.94738e-08 2.84342e-08
-2.0008e-07 5.0094e-08 3.0363e-08
2.29674e-07 7.28762e-08 3.7219e-08
2.23357e-07 7.96729e-08 3.84155e-08
2.54717e-07 7.01161e-08 -5.01818e-09
2.43599e-07 7.62746e-08 -1.22676e-08
2.37245e-07 8.07907e-08 -1.80777e-09
2.45003e-07 7.97709e-08 -1.44725e-09
5.25763e-08 1.28153e-07 2.01643e-08
6.35271e-08 1.17588e-07 2.2428e-08
1.21332e-07 1.3542e-07 7.54376e-10
-3.92166e-08 1.75457e-08 2.24338e-09
1.3469e-07 1.24019e-07 -3.98188e-09
-1.42699e-07 -2.78731e-08 2.22333e-09
-1.31044e-07 -3.41323e-08 5.60268e-09
1.94722e-07 1.00249e-07 -8.43305e-09
1.78602e-07 1.08526e-07 -1.39116e-08
-1.91537e-07 6.26492e-08 3.23717e-08
-1.92363e-07 5.89793e-08 3.02599e-08
-1.64135e-07 7.25324e-08 -2.63081e-08
-1.84208e-07 6.87015e-08 -2.68327e-08
2.35813e-07 7.64809e-08 1.13543e-08
2.26442e-07 8.35136e-08 1.92415e-08
-1.21705e-07 3.60815e-08 1.16913e-08
-1.16444e-07 4.66831e-08 1.29924e-08
-2.02114e-07 5.56305e-08 2.80849e-08
6.72067e-08 1.22367e-07 2.80329e-08
-2.11398e-07 4.95785e-08 1.96322e-08
-1.87114e-07 6.0632e-08 -2.36025e-08
-1.64615e-07 8.3675e-08 -2.6599e-08
-1.35037e-07 1.02061e-07 -2.429e-08
6.18653e-08 -2.74951e-08 -1.4806e-08
5.39431e-08 -3.68973e-08 -1.82853e-08
-1.35454e-07 9.68439e-08 -2.67924e-08
-1.19155e-07 9.28637e-08 -2.28608e-08
-9.60654e-08 -4.62319e-08 4.71003e-09
-9.74047e-08 -4.66017e-08 3.31459e-09
1.24202e-07 -4.09133e-08 -1.79401e-08
1.21904e-07 -3.98628e-08 -1.07352e-08
-1.14052e-07 1.03598e-07 -2.22183e-08
-5.20696e-08 1.39925e-07 -1.29768e-08
-8.18979e-08 1.28039e-07 -1.31032e-08
1.77391e-07 1.07012e-07 -1.75032e-08
1.96442e-07 9.59585e-08 -1.15833e-08
-1.47877e-07 9.40795e-08 -3.14888e-08
-1.62912e-07 8.20314e-08 -2.98891e-08
-3.88281e-08 1.26228e-07 1.13877e-09
-2.10391e-08 1.45509e-07 1.09689e-09
-6.94209e-08 1.18545e-07 -7.37456e-09
-1.40932e-07 8.56186e-08 -2.63186e-08
-1.40497e-07 9.14465e-08 -2.6231e-08
-3.93256e-08 1.20849e-07 -3.54399e-09
1.91621e-07 9.98961e-08 1.89303e-08
1.948e-07 9.88959e-08 1.93792e-08
-9.05694e-08 -3.12469e-08 -2.6722e-09
-9.5852e-08 -2.49863e-08 -2.10239e-09
-1.80051e-07 7.66027e-08 1.94309e-09
-1.40404e-08 3.04877e-08 8.71149e-09
-3.2773e-08 3.12709e-08 6.27074e-09
-1.83364e-07 7.42563e-08 -8.23103e-09
-1.89544e-07 6.84377e-08 3.20519e-09
3.20235e-08 -6.67704e-08 1.39139e-08
3.07995e-08 -7.17668e-08 1.62107e-08
1.38556e-07 -4.85716e-08 -4.27465e-08
1.39217e-07 -4.98688e-08 -3.9978e-08
-3.26468e-08 1.35384e-07 -5.14817e-09
-1.37582e-09 1.45311e-07 -2.29287e-10
2.05133e-07 7.96392e-08 2.94833e-08
1.8157e-07 9.0072e-08 4.01937e-08
1.96087e-07 1.0084e-07 -4.91385e-09
1.8836e-07 1.08907e-07 -4.3185e-09
-9.77011e-08 -1.87419e-08 -1.66672e-09
-1.7562e-07 -1.19365e-08 6.1757e-10
-1.70758e-07 -1.63518e-08 -2.20838e-09
-5.02789e-08 -6.3703e-08 -8.21801e-10
-4.82722e-08 -5.79401e-08 -1.6924e-09
-5.69007e-08 1.03811e-07 -1.16589e-09
-5.82497e-08 1.07405e-07 1.6063e-09
1.70605e-07 1.2316e-07 1.13545e-08
1.80706e-07 1.14423e-07 1.84107e-08
-2.1069e-07 4.59536e-08 2.80996e-08
-2.13703e-07 3.94416e-08 2.22811e-08
1.43596e-07 1.30078e-07 1.40539e-08
1.52766e-07 1.24103e-07 2.09474e-08
-1.01784e-07 -6.21477e-08 2.8943e-09
-9.64058e-08 -6.73287e-08 1.96622e-09
2.10285e-07 8.49791e-08 3.83364e-08
7.24172e-08 1.6431e-07 8.07285e-09
-9.82491e-08 1.2681e-07 -1.37721e-08
9.57244e-08 1.63774e-07 9.90474e-09
-1.10033e-07 -4.37925e-08 5.28002e-09
-1.2561e-07 -3.96478e-08 3.70391e-09
1.58739e-07 1.2946e-07 4.36085e-09
9.93298e-08 1.11936e-07 2.81438e-08
1.699e-07 1.19156e-07 4.74685e-09
-6.47436e-08 1.24443e-07 1.88847e-08
1.63667e-08 1.96292e-09 -1.14956e-09
2.50991e-08 1.75642e-08 -6.96882e-09
2.20394e-07 -2.46001e-08 9.95986e-09
-1.87989e-08 1.29977e-07 6.83681e-09
-5.39092e-08 1.21632e-07 1.38734e-08
-1.74285e-07 4.53985e-08 -1.98286e-08
-2.17567e-07 8.14193e-09 6.46083e-09
-2.17024e-07 5.37388e-09 4.21528e-09
-1.67047e-07 4.49845e-08 -1.6784e-08
1.3203e-07 1.45651e-07 4.80975e-09
3.36346e-08 1.75848e-07 9.90832e-09
1.18391e-07 1.50876e-07 9.19579e-09
-1.561e-08 -6.58892e-08 5.33657e-09
-1.77282e-07 2.83867e-08 1.67388e-08
-1.44416e-07 2.62026e-08 -9.78706e-09
-1.33113e-07 3.77651e-08 -1.0111e-08
-1.62298e-07 2.69935e-08 1.48395e-08
2.18163e-08 9.57839e-08 -2.09387e-08
1.95867e-08 9.47438e-08 -2.06107e-08
6.05944e-08 -8.09923e-08 1.55943e-09
6.79947e-08 -7.28465e-08 5.22702e-09
7.60573e-08 -6.87289e-08 8.3685e-10
-1.94397e-07 3.87978e-08 2.29159e-08
-4.60438e-08 6.52607e-08 -9.53098e-10
-1.05945e-07 7.82908e-09 -3.09534e-09
-1.73487e-07 3.5568e-09 5.89073e-09
3.02106e-07 5.27472e-08 -3.54716e-09
3.07577e-07 4.8986e-08 5.53608e-09
-1.93239e-07 3.28429e-08 2.1128e-08
-1.90501e-07 -1.0863e-08 4.71826e-10
-1.92623e-07 -8.82436e-09 -7.1214e-10
-1.91676e-07 -6.06849e-09 1.78572e-09
-1.62636e-07 8.41106e-08 1.82324e-08
-1.62171e-07 9.24358e-08 1.63952e-08
1.17831e-07 -5.31803e-08 3.13613e-08
1.32244e-07 -4.2485e-08 2.48666e-08
2.10699e-07 5.3314e-08 9.01043e-08
2.8397e-07 6.08934e-08 1.65846e-08
2.87169e-07 6.00703e-08 2.96413e-08
-2.36419e-09 1.34304e-07 1.78084e-08
-1.45836e-07 3.04425e-08 -1.01731e-08
-4.0838e-08 1.36264e-07 2.39069e-08
-4.67523e-08 1.32615e-07 2.93786e-08
-1.36639e-07 7.15951e-08 -1.5347e-08
-1.24554e-07 6.98098e-08 -1.13463e-08
-1.34641e-07 7.0989e-08 -1.67036e-08
1.28442e-07 1.03279e-07 3.66148e-08
-1.42617e-07 -2.06925e-08 -2.67135e-09
-1.44279e-07 -1.95113e-08 -2.92345e-09
-9.80161e-09 -3.60924e-08 5.19769e-09
1.36108e-07 -3.94563e-08 -2.05145e-08
1.41093e-07 -3.60632e-08 -1.3187e-08
-2.02584e-07 1.46037e-08 1.14905e-08
-1.98049e-07 1.27696e-08 1.02219e-08
1.29828e-07 1.03343e-07 4.50112e-08
1.32954e-07 1.07935e-07 4.44038e-08
-1.30785e-07 1.17681e-07 1.58852e-08
-1.19726e-07 1.29421e-07 6.64071e-09
-1.41574e-07 1.10982e-07 5.83377e-09
1.70149e-07 9.50683e-08 3.51386e-08
1.73972e-07 9.92987e-08 3.81922e-08
1.66036e-07 9.80143e-08 2.77057e-08
-9.94127e-08 9.28188e-08 1.8963e-08
-9.72443e-08 9.32509e-08 1.9792e-08
-1.88564e-07 2.28581e-09 -6.26964e-09
-1.80209e-07 -5.02169e-09 -2.98979e-09
-1.87168e-07 -8.56042e-10 -6.16785e-09
-1.44849e-07 -3.41432e-08 5.20578e-09
-1.42705e-07 -3.3375e-08 1.44442e-09
-1.49187e-07 -3.39803e-08 3.15417e-10
-1.51627e-07 -3.49783e-08 2.48735e-09
-1.41096e-07 -3.89713e-08 4.03264e-09
-1.39092e-07 -3.88948e-08 1.19001e-09
1.3276e-08 -7.62555e-08 6.23654e-09
1.42725e-08 -7.35596e-08 9.38484e-09
-1.35661e-07 -3.8532e-08 4.66688e-09
3.95873e-07 1.48023e-08 5.05131e-08
4.07158e-07 9.16573e-09 3.06599e-08
3.85772e-07 1.38174e-08 3.55947e-08
-1.63972e-07 7.83805e-08 -2.73885e-08
-1.41827e-07 8.30896e-08 -2.60621e-08
2.99447e-07 5.30336e-08 8.37287e-08
5.13385e-08 1.45061e-07 -3.28036e-09
2.52932e-07 5.69197e-08 7.73782e-08
-5.64008e-08 -5.14456e-08 -1.9653e-09
-5.22025e-08 -5.66368e-08 -3.33998e-09
2.49883e-07 6.09232e-08 9.47626e-08
-1.87917e-07 6.91312e-08 2.02435e-08
-1.89606e-07 6.4473e-08 2.57501e-08
-1.87507e-07 6.31875e-08 1.9286e-08
3.00504e-07 6.60164e-08 -3.92075e-08
-1.2931e-07 6.44192e-08 2.00941e-08
2.77746e-07 7.95997e-08 -5.01599e-08
2.77333e-07 7.36499e-08 -3.31242e-08
9.33126e-08 1.94085e-08 -1.67618e-08
5.60791e-08 5.05811e-09 -4.86268e-09
8.5513e-08 2.15556e-09 -5.15051e-09
2.14195e-08 1.47947e-07 -2.97109e-10
2.40925e-09 1.34897e-07 7.32218e-09
-1.52795e-07 7.54038e-08 -2.23365e-08
-1.3333e-07 9.08827e-08 -2.46518e-08
-1.08075e-07 -7.9611e-09 -2.69478e-09
-1.22305e-07 9.13547e-08 -1.84519e-08
-2.20399e-07 2.28333e-08 -1.10493e-08
-2.18502e-07 2.0772e-08 -1.27694e-08
1.30047e-08 -3.38383e-08 7.71125e-09
-2.17499e-07 2.84086e-08 -1.62707e-08
-2.05494e-07 -9.1047e-09 -1.38943e-09
-2.06714e-07 -7.29914e-09 -1.47064e-10
3.28773e-07 4.46295e-08 2.99797e-08
3.23746e-07 4.6442e-08 1.73104e-08
8.22719e-08 3.22406e-08 2.93799e-08
8.78291e-08 1.75032e-08 1.83417e-08
1.07119e-07 9.56118e-09 1.3709e-08
2.14367e-07 5.59623e-08 -5.48077e-08
1.64148e-07 -3.43588e-08 1.88548e-08
2.20748e-07 5.82639e-08 -7.21202e-08
-1.84064e-07 7.2712e-08 3.47812e-08
2.1239e-07 6.6318e-08 -7.0797e-08
1.62391e-08 4.45759e-08 1.95552e-08
2.03547e-08 3.89644e-08 1.8744e-08
-1.03221e-07 3.31287e-09 -3.2858e-09
1.17034e-07 -4.03579e-08 1.57863e-09
1.15579e-07 -4.3415e-08 5.6225e-09
-3.66863e-08 4.35773e-09 7.78668e-10
-1.49124e-07 -1.27199e-08 -9.78721e-10
-1.80739e-07 -2.4397e-08 -2.79647e-09
-1.51698e-07 -7.86633e-09 -1.98171e-09
-7.36539e-08 -3.16056e-08 -1.45259e-09
-3.21427e-09 -7.82444e-08 -1.00966e-08
1.29527e-09 -8.1741e-08 -9.50201e-09
-5.00416e-09 -8.02456e-08 -5.77311e-09
1.33889e-07 -1.19744e-08 -5.9704e-09
1.37943e-07 -1.955e-08 -1.33953e-08
1.23784e-07 -3.24011e-08 -2.47776e-08
-1.05844e-07 1.15243e-07 3.38391e-08
1.71856e-08 -5.2919e-08 1.03815e-08
1.83372e-08 -4.88229e-08 1.19422e-08
-1.07432e-07 1.0969e-07 3.04852e-08
-1.27057e-07 6.35532e-08 2.00688e-08
3.23225e-08 -9.23214e-08 -4.33066e-09
4.39766e-08 -8.38046e-08 -9.26887e-09
-1.12563e-07 6.19935e-08 1.52721e-08
-1.58565e-07 8.58324e-08 -2.79849e-08
-1.61489e-07 7.68984e-08 -2.69369e-08
-2.02012e-07 -4.01659e-09 1.64402e-09
-2.07538e-07 7.74481e-10 3.51529e-09
-2.06159e-07 -1.67103e-09 3.12702e-09
6.60778e-08 -6.10386e-08 -2.7842e-08
6.31047e-08 -6.36061e-08 -2.54917e-08
4.41055e-08 -6.75013e-08 -2.54252e-08
-1.49535e-07 -2.69296e-08 -6.06967e-09
-1.47594e-07 -2.81752e-08 -4.52689e-09
2.31543e-07 -1.40175e-08 -8.08048e-09
-1.31901e-07 -4.58533e-08 -8.35726e-09
-1.4482e-07 -4.17904e-08 -8.03573e-09
-1.37385e-07 -4.2165e-08 -6.37665e-09
-1.22093e-07 -4.26057e-08 2.05824e-09
-1.14471e-07 -4.84736e-08 4.47263e-09
3.15621e-07 4.13284e-08 -6.49146e-08
2.46706e-07 5.87418e-08 -6.77188e-08
2.77567e-07 4.23571e-08 -5.67126e-08
1.54414e-07 -4.79619e-08 3.32668e-08
1.71733e-07 -3.8019e-08 2.38592e-08
1.74019e-07 -4.20748e-08 3.04031e-08
1.65605e-07 5.93049e-08 -5.35447e-08
1.65538e-07 5.90576e-08 -5.85606e-08
6.14684e-08 1.38905e-07 -1.17603e-08
2.83619e-07 -2.29262e-08 -2.88927e-08
2.77229e-07 6.49261e-08 -1.32154e-08
2.7329e-07 6.32984e-08 -1.44127e-08
2.67492e-07 6.72752e-08 -1.08115e-08
8.57655e-08 -5.49023e-08 1.15887e-08
8.48549e-08 -6.00342e-08 9.72225e-09
8.41598e-08 -5.82843e-08 6.57212e-09
2.89549e-07 5.70217e-08 -9.57312e-09
-7.377e-08 -2.87797e-08 -4.13743e-10
2.81299e-07 5.7715e-08 5.33227e-10
1.12646e-07 -4.08544e-08 2.19834e-08
1.14008e-07 -4.0868e-08 2.12488e-08
2.56304e-07 7.78879e-08 -5.55027e-08
2.45322e-07 -2.54565e-08 -3.11136e-08
2.5507e-07 8.80117e-08 -7.5264e-08
-3.33101e-08 6.87376e-08 1.4226e-08
-9.01837e-08 1.32862e-07 3.78926e-08
2.00038e-07 9.06651e-08 2.73511e-08
-6.34408e-08 -8.76362e-08 -2.55166e-09
-3.62306e-08 -9.23367e-08 -3.67794e-10
-1.5669e-07 3.73255e-08 1.81892e-08
-4.66611e-08 -9.56147e-08 -3.86818e-09
-1.99522e-07 -1.41347e-08 -1.70389e-09
-2.01469e-07 -1.20683e-08 -2.83768e-09
-2.05112e-07 -1.07238e-08 -2.00374e-09
-1.89864e-07 6.66443e-08 1.76686e-08
-9.34481e-08 1.03781e-07 -1.05089e-08
-6.22382e-08 1.05095e-07 -4.61045e-09
-1.85519e-07 6.78142e-08 7.02278e-09
2.55616e-09 -6.55127e-08 9.50408e-09
-1.09666e-07 1.17379e-07 3.46242e-08
-1.59356e-07 -2.58349e-08 -4.29159e-09
-1.01414e-07 8.18139e-08 -8.45521e-09
-1.49906e-07 -3.14474e-08 -5.97806e-09
-1.52274e-07 -3.08863e-08 -8.38294e-09
1.41387e-07 3.2036e-08 -3.3779e-08
1.51012e-07 -4.16714e-08 -3.71236e-08
1.50256e-07 -4.06188e-08 -3.70037e-08
1.36584e-07 3.88449e-08 -3.57095e-08
-8.88718e-08 -3.39014e-08 -9.26345e-10
1.27814e-07 1.48056e-08 -1.73358e-08
-1.13188e-07 -5.61631e-08 -7.2459e-09
-6.76884e-08 -4.88268e-08 -4.84838e-10
-1.7302e-07 -2.50001e-08 2.05646e-09
-1.69794e-07 -2.52222e-08 1.91148e-10
-9.72813e-08 -6.17141e-08 -7.34948e-09
-1.10172e-07 -5.90931e-08 -5.14647e-09
8.49736e-08 1.40289e-07 6.58322e-10
8.31233e-08 1.38938e-07 -9.50439e-10
-1.68162e-07 8.62521e-08 6.44593e-10
-1.69687e-07 8.23119e-08 -7.99192e-09
-1.58149e-07 9.42422e-08 -9.74798e-09
3.09634e-07 4.82821e-08 -5.69139e-08
2.39121e-07 7.67803e-08 -6.98704e-08
2.51701e-07 6.53284e-08 -7.00413e-08
2.40904e-07 7.56418e-08 -7.06388e-08
-2.11466e-07 1.29161e-08 -1.10973e-08
-2.06613e-07 1.89619e-08 -1.34477e-08
-2.12886e-07 1.59849e-08 -1.18992e-08
-2.03605e-08 1.41931e-07 1.75172e-08
-1.96199e-07 6.08374e-08 2.46886e-08
-4.79569e-08 1.27206e-07 2.08039e-08
-8.38577e-08 -1.56554e-09 -2.27638e-09
1.86243e-07 7.59565e-08 8.5856e-08
-1.49942e-07 -3.67946e-09 -3.44948e-09
-1.52584e-07 7.26144e-11 -4.06454e-09
-2.19109e-07 1.38965e-08 9.75205e-09
3.24031e-07 4.30126e-08 1.19215e-09
-2.21116e-07 1.57853e-08 9.01045e-09
1.25448e-07 8.9494e-08 6.85065e-08
1.87022e-07 7.13701e-08 7.22994e-08
3.52149e-07 1.81194e-08 -6.58097e-08
3.34908e-07 1.1996e-08 -4.74949e-08
1.70506e-07 8.25251e-08 7.30931e-08
-1.94582e-07 6.15473e-08 8.37414e-09
-2.00707e-07 6.16191e-08 3.59793e-09
-1.9132e-07 6.50527e-08 -6.74068e-09
-2.08213e-07 4.18429e-08 -2.08621e-08
-1.80504e-07 -2.10714e-08 1.86897e-09
-1.86507e-07 -1.46089e-08 -1.72387e-09
-1.85762e-07 -1.71314e-08 -1.7822e-09
-1.88114e-07 -1.60619e-08 3.74875e-10
3.25935e-07 5.69299e-08 -4.48596e-08
3.05736e-07 5.98201e-08 -5.24054e-08
1.21684e-07 -4.09019e-08 8.84805e-09
1.14988e-07 -4.10116e-08 1.04557e-08
3.28401e-07 5.75606e-08 -5.93523e-08
1.99979e-07 2.4486e-08 5.19112e-08
1.08555e-07 1.40105e-07 -3.21952e-08
1.08795e-07 1.35227e-07 -2.0116e-08
2.72926e-07 1.60266e-08 4.99449e-08
2.69839e-07 1.20608e-08 5.73672e-08
-8.85918e-08 1.34709e-07 2.7928e-08
2.11678e-07 9.88383e-08 1.37926e-08
1.02888e-07 1.51582e-07 1.19801e-08
1.79376e-07 1.11193e-07 2.45303e-08
1.22879e-07 8.92814e-08 7.46381e-08
9.35726e-08 6.76653e-08 4.95807e-08
1.50629e-07 -4.17836e-08 2.62317e-08
1.3451e-07 -4.94848e-08 3.29441e-08
-9.91513e-09 -7.71389e-08 6.3231e-09
-5.60114e-09 -8.33091e-08 6.38142e-09
-1.29432e-08 -8.08655e-08 1.69903e-09
1.17126e-07 1.54142e-07 1.68476e-08
1.39887e-07 1.41042e-07 1.23857e-08
5.58711e-08 -3.75475e-08 -1.8543e-08
-1.52833e-07 5.02467e-08 2.19814e-08
7.0057e-08 -4.83438e-08 -2.73968e-08
-1.61301e-07 -1.47827e-08 -1.58861e-09
-1.6569e-07 -1.05222e-08 3.00332e-10
-1.36373e-07 5.05979e-08 1.81537e-08
-9.29401e-09 -6.60227e-08 -1.13632e-08
1.97671e-07 1.08119e-07 8.32471e-09
3.1797e-08 -7.79926e-08 -1.47039e-08
3.21671e-08 -7.6964e-08 -1.13247e-08
-9.81492e-08 -7.27691e-08 -2.44649e-09
1.01736e-07 9.76548e-08 4.78781e-08
1.10756e-07 1.01302e-07 5.91237e-08
-1.10684e-07 6.02685e-08 1.47198e-08
1.05398e-07 1.0637e-07 5.30449e-08
-9.12527e-08 7.5856e-08 1.39191e-08
7.8268e-08 7.87137e-08 -3.99023e-08
1.90003e-07 2.029e-08 -3.41276e-08
1.87527e-07 2.40371e-08 -3.31656e-08
7.00627e-08 6.15759e-08 -2.8411e-08
7.31947e-08 8.34009e-08 -3.59278e-08
-1.66249e-07 7.42216e-08 3.48378e-08
-1.57304e-07 8.67053e-08 3.96762e-08
6.91765e-08 -6.41853e-08 2.40822e-08
8.21197e-08 -5.51216e-08 2.15973e-08
6.97818e-08 -6.01874e-08 2.03766e-08
-1.93412e-07 3.83039e-08 -1.84023e-08
-1.8378e-07 4.70183e-08 -2.16512e-08
-1.76239e-07 4.8134e-08 -1.9155e-08
4.8439e-07 -2.15069e-08 -3.10175e-09
5.12031e-07 -2.87638e-08 -2.511e-09
4.6733e-07 -1.58296e-08 -2.683e-09
1.46129e-07 1.6762e-09 9.71378e-09
1.08276e-07 -2.33284e-09 3.08452e-09
4.86703e-08 -7.02025e-08 -1.24834e-08
-2.11058e-07 8.77398e-09 7.31e-09
-6.55005e-08 -7.0051e-08 -4.30192e-09
-2.09876e-07 3.05964e-09 4.45263e-09
-2.08431e-07 6.5486e-09 6.88694e-09
3.50494e-07 3.24457e-08 4.7533e-08
-5.57497e-08 -6.40386e-08 -4.58079e-09
-6.54341e-08 -5.62276e-08 -3.98597e-09
9.44077e-08 1.10093e-07 4.05226e-08
9.482e-08 1.18232e-07 4.78502e-08
-6.80658e-08 -6.16043e-08 -6.01609e-09
-1.77824e-07 6.92212e-08 3.53665e-08
-1.74631e-07 3.87392e-08 2.16757e-08
-1.719e-07 3.76323e-08 2.0826e-08
-9.67124e-08 -2.34023e-08 -1.56388e-09
-7.97486e-08 -2.15416e-08 -2.42639e-10
-1.02634e-07 -1.69583e-08 -4.91428e-10
1.68873e-07 -3.16753e-08 -8.83478e-09
2.92293e-07 5.48304e-08 5.9461e-09
-7.76609e-08 -5.54772e-08 3.42078e-09
2.80302e-07 5.97275e-08 1.7817e-08
2.98231e-07 5.53565e-08 4.53174e-09
-1.22643e-07 6.48384e-08 -1.17531e-08
1.6499e-07 1.07293e-07 2.41784e-08
-1.46585e-07 7.1967e-08 -2.03433e-08
2.82208e-07 3.45789e-08 7.80975e-08
2.94491e-07 2.50289e-08 7.70911e-08
-6.27165e-08 1.22513e-07 2.1407e-08
-9.74961e-08 1.11597e-07 2.5568e-08
-9.59029e-08 1.15537e-07 2.54586e-08
-2.1469e-07 2.15217e-08 1.4433e-08
-2.12413e-07 1.93665e-08 1.41845e-08
-9.8214e-08 1.06001e-07 2.77481e-08
1.66274e-07 -4.2253e-08 3.04919e-08
1.50383e-07 -3.72613e-08 2.23796e-08
1.50107e-07 -3.81729e-08 2.39457e-08
1.82744e-07 -3.51093e-08 1.89184e-08
1.617e-07 -3.64157e-08 1.91966e-08
9.70492e-08 -4.63716e-08 -3.22352e-08
9.86952e-08 -4.62298e-08 -2.84735e-08
9.32407e-08 -5.03763e-08 2.08415e-08
-1.01675e-07 -4.0583e-08 3.11362e-09
7.31544e-08 -5.85357e-08 2.26296e-08
8.6459e-08 -5.81119e-08 2.49977e-08
-8.06242e-08 -6.94202e-08 1.74717e-09
-8.0474e-08 -6.95797e-08 3.30277e-09
-8.57077e-08 -6.47738e-08 3.17029e-09
2.12084e-07 9.15888e-08 7.26335e-08
2.11588e-07 8.00389e-08 5.34494e-08
2.04309e-07 8.56074e-08 5.19717e-08
1.71262e-07 1.01398e-07 3.16419e-08
1.60566e-07 1.0943e-07 -5.4687e-08
-1.60837e-07 8.15315e-08 -2.80506e-08
3.01524e-07 7.15715e-08 -5.87265e-08
3.0297e-07 5.37816e-08 1.65622e-08
1.57731e-07 1.0328e-07 -4.88187e-08
1.49272e-07 1.33242e-07 8.95553e-09
2.20626e-07 8.48993e-08 9.5744e-09
-1.32867e-07 8.37085e-08 3.02992e-08
-1.30555e-07 9.34408e-08 3.05624e-08
-1.67764e-07 5.9624e-08 -2.20387e-08
-1.65369e-07 6.58788e-08 -2.16233e-08
-1.64415e-07 6.97003e-08 -2.38873e-08
-1.97791e-07 6.10309e-08 -2.25323e-08
3.04048e-08 1.66256e-07 8.35164e-09
-1.98479e-07 5.85538e-08 1.55825e-08
2.10172e-08 1.6254e-07 1.57918e-08
2.75278e-07 6.28695e-08 1.11303e-08
2.67125e-07 6.21018e-08 7.16022e-09
-2.14804e-07 3.50512e-08 2.17238e-08
-5.96673e-08 6.35703e-08 6.31609e-09
-2.15155e-07 3.41262e-08 1.97709e-08
-1.5451e-07 8.13761e-08 3.41679e-08
2.00772e-07 9.32162e-08 2.36655e-08
-7.2508e-08 -8.88118e-08 -3.34015e-11
-8.36383e-08 -8.05459e-08 -1.48236e-09
-8.96764e-08 -7.99356e-08 -1.95763e-09
-2.07048e-07 2.91769e-08 -1.83375e-08
-2.00335e-07 3.73203e-08 -2.01593e-08
-2.08857e-07 3.13781e-08 -1.75642e-08
-2.20319e-07 4.23398e-08 1.59577e-08
-2.09623e-07 4.94875e-08 2.75957e-08
-2.08896e-07 4.65446e-08 2.33532e-08
1.46981e-07 1.20149e-07 2.36146e-08
-7.83044e-08 -5.63735e-08 -5.77985e-09
-7.60909e-08 -5.41713e-08 -6.19041e-09
2.76283e-07 6.12753e-08 7.05599e-09
4.71781e-08 -4.65642e-08 1.56187e-08
3.70997e-08 -5.45541e-08 1.56397e-08
2.61435e-07 6.90533e-08 6.10199e-09
2.68782e-07 6.50564e-08 -9.79641e-10
3.44098e-08 1.61102e-07 8.56325e-09
1.279e-08 1.50835e-07 1.7355e-08
2.56406e-08 1.48634e-07 9.47067e-09
-1.56204e-07 3.36045e-08 -1.34375e-08
-1.65443e-07 4.03126e-08 -1.66986e-08