# vtk DataFile Version 2.0
S, Created by Mohamad Ibrahim Cheikh
ASCII
DATASET UNSTRUCTURED_GRID
POINTS 2818 double
-98.9235 -23.5626 -13.5172
-102.18 -21.136 -14.526
-57.7887 -30.7082 24.1691
-53.5062 -31.2167 24.7186
-8.17201 3.35612 -43.7785
-16.0169 36.2262 -24.3362
-11.9266 -7.54161 43.1475
4.20017 34.392 -27.4049
3.92646 36.7988 -24.0824
122.392 -7.23387 -7.04875
121.439 -4.87911 -10.327
124.31 1.25749 -6.51935
122.518 -0.527615 -9.89812
-9.01873 36.7596 -23.9744
-5.9675 37.7459 -22.5142
-12.2835 11.9229 -42.1351
-5.84656 1.98222 -43.9077
-96.1143 9.66047 26.6771
33.223 -8.78559 41.5172
-94.6001 12.7889 26.0152
-78.636 -14.6946 31.0323
-74.7851 -15.1029 31.9871
-84.2388 25.8039 -20.0343
-88.0286 23.992 -20.2895
-25.9921 7.46295 42.398
-68.1932 -12.3904 34.8301
-72.0465 -12.3729 33.8735
11.7786 6.49578 -43.3223
-66.493 -12.6381 -35.1422
-63.2378 -10.8866 -36.4401
-56.3043 -32.5112 -22.1561
-59.3652 -30.6212 -23.8091
-100.268 2.26056 26.4576
-96.9141 1.7174 27.9847
-43.9186 -19.0876 36.5447
-40.8926 -20.6145 36.1429
17.7051 -8.81494 -42.6605
-31.4486 -22.6807 36.0624
-34.9529 -23.1379 35.3704
9.38745 -15.8411 -40.9179
5.88092 -17.0038 -40.5295
-49.8319 -35.4175 19.4314
-46.0081 -34.8781 21.4561
-58.8694 33.478 -19.7719
-62.2721 32.0573 -20.8223
-73.1587 34.0133 11.1277
-76.3195 32.541 12.8051
-85.682 31.5615 6.40798
-84.515 32.4645 2.74926
-78.9535 9.63239 -32.8638
-76.3641 11.7939 -32.9083
-110.657 12.5927 16.6809
3.95774 6.7632 -43.455
-107.085 15.3158 17.2477
38.7386 -27.2542 -31.7723
40.8572 -25.0224 -33.2491
-93.9577 24.2604 16.3283
-96.0539 22.1676 17.7486
-63.2668 -32.9366 19.0034
-65.3308 -33.8827 16.2916
-65.3479 -27.0844 -26.0694
-65.644 -29.891 -22.6926
-80.8966 32.4812 -8.93056
-84.5188 30.9812 -10.0794
-12.1852 -17.6674 40.071
-15.1961 -15.6544 40.7758
-65.4636 -35.1793 13.1812
-64.6972 12.9616 -35.4335
-63.3767 -36.564 10.3594
-62.7156 -31.5265 -21.4599
-80.2697 -25.8134 -21.9276
-83.7084 -19.3837 -26.5026
22.2021 24.9994 -35.3649
24.9598 22.5164 -36.7796
-80.4764 -20.7008 -26.7313
-64.5916 -17.8917 -33.243
50.5551 -16.8541 -36.5927
47.2112 -15.0432 -37.9054
79.2461 32.985 -8.89553
82.4522 32.448 -7.12763
-67.4267 -15.8303 -33.5974
-106.885 -6.40329 -22.2778
-105.945 -9.99163 -21.4932
-90.5271 22.3188 20.8455
-87.8203 24.8813 19.3052
-81.7324 -23.2698 -24.0137
-76.5108 -26.4258 -22.825
-69.7979 -1.82176 -36.5545
-98.7633 -1.00128 -27.2174
-66.7051 -6.60172 -36.7104
-67.9621 -22.319 -29.536
-65.154 -20.7849 -31.373
-66.4418 -3.28023 -37.2125
-99.1539 25.533 -8.96624
-95.8812 25.9628 -11.6792
29.5104 -14.1552 40.361
26.1652 -15.9098 39.9882
-97.507 -27.4817 -4.09078
0.861915 12.2698 -42.2535
0.492547 8.86414 -43.0975
-93.9089 -28.5966 -6.20756
-90.8769 -30.1318 -4.11955
91.9535 10.9505 27.9443
88.3081 10.9738 29.3398
37.3149 34.1252 -24.5152
41.0258 33.41 -24.7731
-104.538 -3.49969 -24.2037
-105.342 0.378205 -24.0262
-72.4383 30.4831 -19.088
-69.867 28.204 -23.3002
-98.1525 24.5195 12.4623
-101.357 22.5291 13.0643
21.5082 -10.276 -42.1161
20.1614 -36.3132 23.824
23.9688 -34.95 25.3803
70.3023 -6.58925 -35.8815
73.7282 -6.73631 -35.0015
-41.952 -2.87142 -41.3797
-46.0271 -2.02445 -40.8966
-111.549 19.8708 -4.21008
-107.561 22.1943 -5.19276
-50.0225 -37.1128 15.8837
-46.5821 -38.2741 14.333
-112.92 16.8486 -9.54103
-109.423 18.853 -10.7075
103.089 -21.5894 -12.9917
106.688 -19.3987 -12.8897
-68.8711 30.6657 -20.369
-123.421 7.05409 4.61528
-111.42 -11.8605 -16.5958
-122.743 9.27172 2.34716
58.7786 -22.2243 -31.9232
57.2754 -25.3395 -29.8711
-113.817 17.4215 6.8172
-69.0133 16.2712 -32.9868
-110.922 19.6499 6.59737
-65.1363 -9.19451 36.4968
11.6207 12.7812 41.9059
7.97039 15.0921 41.2365
31.069 39.5067 16.0326
-58.0851 -2.58718 38.9389
-57.577 -7.0392 38.4783
-25.8827 -26.4792 -33.9534
-11.1579 -42.4477 10.9065
-8.10474 -42.9999 8.8863
-23.5647 -23.7117 -36.1355
-118.751 13.6069 4.93489
-124.976 3.38299 3.50799
-120.702 12.026 2.77421
56.419 1.29531 39.3016
-18.1316 -31.1467 30.4242
-7.03118 -19.046 -39.5878
-11.9256 -15.7167 -40.8849
-13.458 -27.8611 33.7281
-18.8214 10.1657 42.3
-23.2658 10.1157 42.0405
121.536 10.862 3.09884
118.828 13.6081 4.69955
117.372 15.6283 2.26714
-30.804 -33.6989 26.1574
-16.2694 -0.494122 43.6274
4.28888 -9.19692 -43.0019
2.37757 -31.9485 30.2424
-54.922 39.5661 1.10527
-51.0147 40.2128 0.549848
-25.9777 -34.5428 25.6938
18.1556 -39.7849 17.6863
13.6057 -39.7883 18.1722
10.8426 -38.629 20.7221
-102.62 -24.9226 5.05551
-106.131 -23.139 4.64292
43.5029 28.8261 29.5526
41.0497 31.2731 27.4169
0.496084 38.1034 -22.0023
-58.661 37.3304 -11.0064
-54.4782 38.1402 -10.8613
-87.6388 -3.83343 31.3205
-10.5959 -18.9678 -39.5282
-88.4648 -8.01924 30.225
-91.1293 -9.76598 28.7036
-35.5866 -16.2565 -38.9446
-29.2851 -12.6609 -40.8742
-31.6218 -16.2035 -39.383
-57.6888 20.9814 -32.9899
28.9055 -28.9865 31.5197
24.8736 -27.9938 32.8116
28.7765 5.03882 42.535
73.8336 34.7723 -7.71178
71.2417 35.8005 -5.73942
-13.6585 -38.358 21.0196
-10.5658 -37.1769 23.2424
-54.4811 22.9825 -32.3173
-51.3954 22.0888 -33.5363
-117.402 -15.6818 1.60525
-120.086 -13.0523 -0.341872
-115.374 -17.4759 -0.950427
-77.7286 25.9992 -22.8112
-73.8781 25.8302 -24.5067
-81.2884 24.0093 -23.4639
-41.2086 -13.05 39.4689
-37.8217 -12.8857 39.9352
3.28299 -34.4922 -27.2942
10.7664 -33.3531 -28.4496
7.72761 -35.0395 -26.475
52.8962 -31.6059 -24.3825
57.0808 -31.3097 -23.5966
61.339 -33.5747 -18.6575
62.528 -34.7456 -15.8136
64.7282 -31.2607 -21.1144
68.4043 -30.9422 -20.1423
108.434 3.81473 21.9524
104.658 5.24134 23.8224
60.1655 -29.3453 -25.1331
-1.73753 42.996 -9.32595
-3.30311 43.6861 -5.11728
-4.89669 43.1912 -8.22094
-61.7795 -25.3729 -28.7217
-61.6239 -22.2293 -31.2559
-13.3853 39.7065 -18.3701
-83.519 4.90165 32.5264
-13.3811 37.961 -21.7494
50.1271 -5.41957 -39.9874
53.3714 -3.91755 -39.6473
-9.97939 38.6122 -20.8064
-87.4277 -30.7508 7.38787
-80.9216 -32.3493 9.37059
-83.596 -32.0676 7.21725
-39.941 35.8648 21.3168
-30.0316 -18.9359 38.3016
-42.9052 34.0071 23.5402
-46.7177 33.102 23.9384
9.60503 25.5438 35.6682
12.7458 20.3359 38.7629
13.4037 24.0014 36.5778
-78.1185 2.00668 34.4215
-76.3708 -1.22398 34.9346
-52.8041 -22.435 -33.0348
-55.1332 -18.8714 -34.7523
15.0447 -11.4251 -42.1634
-52.6388 -15.6226 -36.7791
-28.9948 -40.2505 -14.5934
-24.8303 -40.2897 -15.4032
26.1045 10.611 41.713
-32.2476 -39.0167 -16.9229
14.6726 -43.437 4.78188
11.6131 -43.1311 7.69408
-38.9053 41.2257 -7.15061
-43.2152 40.7182 -7.02738
4.2978 29.0824 -32.9841
7.79606 29.6103 -32.4313
9.34024 31.6011 -30.4416
-5.94715 32.5356 29.5484
53.0886 37.6765 13.0928
-0.690389 34.7294 27.015
-74.8496 -30.885 17.2106
-2.67421 32.9893 29.1003
-2.27623 17.9477 -40.1652
0.98135 19.1967 -39.59
8.54812 -8.5888 -43.0498
88.4174 31.1783 2.60674
91.393 29.9742 3.86332
9.24947 1.87309 43.8408
18.0428 -23.9407 -36.3729
44.8374 -40.8499 -4.59915
13.789 -24.8567 -35.9842
29.8661 -10.6148 41.4019
109.399 1.9343 -21.6099
115.268 1.93933 -17.4794
112.324 0.257312 -19.7807
14.9728 33.6556 -27.8541
18.6267 34.1069 -27.023
21.7242 32.0857 -29.1329
-63.1012 -16.6316 34.2331
40.6206 9.36902 40.5735
37.4597 11.416 40.4212
-66.8559 -16.7732 33.2781
-26.1716 -18.3152 38.9448
123.853 5.21074 -5.55072
121.517 8.32087 -7.67584
-24.8059 -15.1166 40.3999
-74.19 -24.6369 -25.5958
-70.8283 -26.4658 -24.9273
6.94392 -41.2851 15.0213
-0.0109653 -41.4766 14.6863
3.60076 -42.0701 12.8265
79.7197 22.0643 -25.9055
76.3736 20.3532 -28.4187
76.6557 17.2432 -30.3192
38.5847 -32.6322 26.2463
42.5298 -31.9666 26.3189
15.9663 40.194 -17.0069
75.3136 -30.1884 18.172
72.6374 -33.6345 12.5998
72.6226 -31.8497 16.61
70.5489 -26.2924 -25.2062
73.5999 -24.0226 -26.3764
-5.06076 38.8119 20.6518
-7.16935 35.1142 26.3951
-4.76084 36.9722 23.7967
43.0906 33.3767 24.3858
40.6779 35.5301 21.7032
36.9407 34.9818 23.3496
-1.42698 30.109 32.0811
1.56777 31.0658 31.1547
-80.4872 7.68008 32.9224
19.7216 42.0066 -11.1276
-59.1784 35.0987 16.5927
-60.9787 36.0666 13.4147
-65.4701 34.8568 14.008
105.129 21.9485 10.0572
108.343 20.0515 9.84043
110.057 19.9972 7.29078
-58.427 38.3555 6.84916
26.2742 -9.03607 42.0694
-62.1388 37.8633 5.44397
31.1329 27.6407 32.4549
35.2038 28.0859 31.5508
-30.5604 32.6833 27.4492
19.7812 40.6986 -15.2222
-26.9319 33.4855 26.9429
-12.1248 8.46723 -42.9687
-112.623 -12.9771 14.652
-81.6823 28.1036 -18.1476
120.089 -11.1916 6.71765
121.076 -6.21223 10.1314
-17.1525 -25.543 35.3204
122.094 -7.94721 6.91302
24.2055 -43.1772 -0.0174958
20.4018 -43.4139 0.522737
17.9736 -43.482 -2.40046
-88.3915 -31.1428 3.09336
-49.8507 -9.0472 -39.3687
-49.371 -4.92756 -40.1659
-91.4042 -30.209 0.737447
71.5667 5.28038 35.7918
-110.639 -16.0795 13.3704
41.7291 -35.6066 21.3303
-30.7401 -8.60689 -41.7879
49.1939 -33.4874 22.7663
45.0144 -33.9272 23.1703
7.11919 30.3002 31.8071
30.2815 34.8885 -24.6278
26.7363 34.7294 -25.3447
3.95567 29.1302 32.9471
31.5522 -9.21645 -41.5833
10.284 28.6842 33.1703
94.8748 -25.4822 13.5879
39.4757 -6.51021 -41.2654
41.6537 -37.4184 -17.9846
45.0678 -37.8863 -15.8732
99.869 -21.4765 15.9267
98.5042 -23.9528 13.2027
-107.775 8.43386 21.0423
-111.456 8.82464 18.3638
-103.7 -24.2448 -5.62268
-100.358 -25.5516 -7.07332
-106.254 -22.1734 -7.88041
-11.4654 37.3421 22.9232
-20.0587 33.5753 27.558
-13.2891 35.1528 26.0511
-16.3268 33.4214 28.0424
-12.2607 -39.3733 -19.1661
-16.7711 -37.2789 -22.6241
-16.0521 -39.1431 -19.2943
-78.9336 -5.02911 33.8807
-74.4993 -33.5305 11.4977
-77.5667 -8.57142 33.5547
10.0689 -4.66591 -43.6098
-11.3186 34.6214 -26.864
11.0295 -22.6812 -37.5056
7.42339 -23.3942 -37.1748
-18.2324 -41.8804 11.8884
-43.3873 41.2065 2.74801
-21.9311 -42.0575 10.406
-18.429 28.7748 -32.6562
-15.4181 33.7648 -27.6918
7.70662 41.183 15.2541
10.5852 40.0178 17.9126
-17.8375 31.6894 -29.8802
-84.8645 -32.4576 0.871477
-83.7338 -32.6986 -2.89813
-86.4954 -31.3036 -6.33458
-46.149 -36.5911 -18.3397
34.0835 -38.1645 -18.3642
25.063 -37.8947 -20.5691
30.2166 -39.3864 -16.5204
26.3451 -39.2586 -17.6008
-32.4393 38.3581 18.3254
-27.5852 37.1689 21.4782
[...]
POINT_DATA 2818
VECTORS F double
-1.30605e-07 7.64733e-08 -1.62848e-08
-1.25234e-07 8.68976e-08 -1.85877e-08
-1.53169e-07 5.91353e-08 3.02973e-08
-1.51484e-07 5.75221e-08 3.24983e-08
-4.52714e-08 5.31389e-08 5.10836e-09
2.0761e-07 5.97837e-08 7.22634e-08
-6.32549e-08 4.96425e-08 6.5362e-09
1.35163e-07 3.88691e-08 5.13152e-08
1.85643e-07 3.64767e-08 5.94433e-08
-4.18464e-08 -8.65067e-08 -1.84822e-10
-2.93058e-08 -8.28228e-08 -3.06408e-09
4.81314e-09 -8.88363e-08 -5.90509e-09
-5.53049e-09 -8.70066e-08 -3.74625e-09
1.96364e-07 5.13376e-08 6.96713e-08
1.96812e-07 4.88376e-08 7.54914e-08
1.95918e-09 7.0364e-08 1.98408e-08
-5.02148e-08 4.35763e-08 2.78588e-09
7.20964e-08 1.10674e-07 -8.27596e-09
-6.12014e-08 -2.9506e-08 -2.47807e-10
9.81644e-08 1.00735e-07 -5.81774e-09
-7.37935e-08 1.0415e-07 2.64242e-08
-7.19241e-08 1.0522e-07 2.90926e-08
1.55607e-07 8.63724e-08 3.11418e-08
1.51629e-07 8.87114e-08 2.43576e-08
2.17453e-08 8.90848e-08 -1.40487e-08
-6.0041e-08 1.09727e-07 2.46422e-08
-6.3008e-08 1.06668e-07 2.25552e-08
-2.83985e-08 7.05393e-09 1.12295e-10
-7.55925e-08 9.24154e-08 -1.57241e-08
-7.53881e-08 9.82492e-08 -1.3335e-08
-1.62688e-07 4.92151e-08 -2.16002e-08
-1.57984e-07 5.75435e-08 -2.57807e-08
2.95986e-08 1.12524e-07 4.11936e-09
3.10904e-08 1.15685e-07 6.08281e-09
-1.08763e-07 8.12107e-08 2.64142e-08
-1.11137e-07 7.20509e-08 2.57005e-08
-8.51583e-08 -6.79998e-09 -2.922e-09
-1.23183e-07 6.05778e-08 2.49474e-08
-1.25367e-07 6.01652e-08 2.419e-08
-1.11065e-07 6.12411e-09 -5.49058e-09
-1.13989e-07 9.11105e-09 -5.84753e-09
-1.72338e-07 4.44158e-08 2.68469e-08
-1.71052e-07 4.54266e-08 2.89379e-08
2.01152e-07 6.11185e-08 3.01606e-08
1.95551e-07 6.68344e-08 3.12954e-08
2.19647e-07 5.89704e-08 -3.45287e-09
2.10277e-07 6.40445e-08 -9.31452e-09
2.04754e-07 6.82955e-08 -1.18896e-09
2.11285e-07 6.7424e-08 -9.74164e-10
5.16683e-08 1.09894e-07 1.70126e-08
6.10109e-08 1.00692e-07 1.87533e-08
1.07273e-07 1.14188e-07 9.23202e-10
-2.93021e-08 2.46033e-08 3.50245e-09
1.18418e-07 1.0479e-07 -3.03887e-09
-1.2679e-07 -2.21664e-08 8.7799e-11
-1.16929e-07 -2.74885e-08 3.09579e-09
1.68876e-07 8.45347e-08 -6.62704e-09
1.55534e-07 9.14966e-08 -1.12229e-08
-1.62415e-07 5.53501e-08 2.97322e-08
-1.62967e-07 5.17559e-08 2.76301e-08
-1.36902e-07 6.43914e-08 -2.48839e-08
-1.55013e-07 6.10451e-08 -2.55102e-08
2.04258e-07 6.47441e-08 8.95268e-09
1.96226e-07 7.05767e-08 1.54832e-08
-1.03167e-07 3.72845e-08 1.2598e-08
-9.7921e-08 4.73764e-08 1.37208e-08
-1.71705e-07 4.87195e-08 2.56235e-08
6.55611e-08 1.05055e-07 2.37733e-08
-1.80288e-07 4.33301e-08 1.78995e-08
-1.57714e-07 5.37331e-08 -2.25092e-08
-1.37387e-07 7.35632e-08 -2.50256e-08
-1.11288e-07 8.96936e-08 -2.25663e-08
5.82298e-08 -1.21927e-08 -4.14351e-09
4.84186e-08 -2.20618e-08 -9.48337e-09
-1.11514e-07 8.52954e-08 -2.49503e-08
-9.67611e-08 8.26331e-08 -2.1456e-08
-8.65254e-08 -3.83073e-08 3.00839e-09
-8.73403e-08 -3.79573e-08 1.74543e-09
1.14929e-07 -3.83265e-08 -1.6766e-08
1.12649e-07 -3.72406e-08 -9.99315e-09
-9.22773e-08 9.20311e-08 -2.06898e-08
-3.8949e-08 1.20995e-07 -1.1899e-08
-6.50777e-08 1.11217e-07 -1.24284e-08
1.54742e-07 8.98488e-08 -1.39245e-08
1.70443e-07 8.06854e-08 -9.06351e-09
-1.22443e-07 8.27373e-08 -2.91524e-08
-1.3572e-07 7.22474e-08 -2.79461e-08
-2.63878e-08 1.10877e-07 6.42879e-10
-1.16428e-08 1.26051e-07 5.35081e-10
-5.30419e-08 1.04977e-07 -7.07835e-09
-1.16081e-07 7.60312e-08 -2.47519e-08
-1.15722e-07 8.16111e-08 -2.46451e-08
-2.66866e-08 1.0635e-07 -3.54115e-09
1.66597e-07 8.46926e-08 1.56189e-08
1.69336e-07 8.36758e-08 1.58106e-08
-8.04103e-08 -2.39261e-08 -1.19312e-09
-8.50317e-08 -1.84741e-08 -5.38287e-10
-1.51614e-07 6.57274e-08 8.89473e-10
-5.18067e-09 3.62054e-08 1.05005e-08
-2.28544e-08 3.75064e-08 7.68223e-09
-1.54459e-07 6.38958e-08 -8.26998e-09
-1.60014e-07 5.87985e-08 2.09478e-09
2.92207e-08 -6.12454e-08 1.22282e-08
2.81421e-08 -6.59205e-08 1.42857e-08
1.23359e-07 -3.82654e-08 -3.02771e-08
1.23532e-07 -4.0704e-08 -2.98488e-08
-2.23134e-08 1.17226e-07 -5.15136e-09
4.61719e-09 1.25057e-07 -5.10174e-10
1.79766e-07 6.72249e-08 2.3834e-08
1.6054e-07 7.61166e-08 3.31996e-08
1.69859e-07 8.51448e-08 -3.73412e-09
1.63365e-07 9.17784e-08 -3.09547e-09
-8.54308e-08 -1.08293e-08 -2.69923e-09
-1.54789e-07 -9.18208e-09 2.04194e-09
-1.50714e-07 -1.2775e-08 -1.66039e-10
-4.61918e-08 -5.5504e-08 -8.87706e-10
-4.44419e-08 -5.07596e-08 -1.69222e-09
-4.10919e-08 9.44902e-08 -1.45646e-09
-4.25456e-08 9.66306e-08 1.07892e-09
1.48793e-07 1.04271e-07 9.46921e-09
1.57331e-07 9.69239e-08 1.52693e-08
-1.80389e-07 4.11474e-08 2.65901e-08
-1.83276e-07 3.52198e-08 2.11243e-08
1.26308e-07 1.10144e-07 1.14857e-08
1.34146e-07 1.05052e-07 1.71303e-08
-9.29408e-08 -5.5711e-08 2.28852e-09
-8.81948e-08 -6.03425e-08 1.44065e-09
1.84236e-07 7.15152e-08 3.14005e-08
6.69059e-08 1.39254e-07 6.21973e-09
-7.95708e-08 1.09836e-07 -1.30925e-08
8.67029e-08 1.38504e-07 8.00639e-09
-9.91665e-08 -3.72113e-08 3.55099e-09
-1.1273e-07 -3.3523e-08 1.97396e-09
1.38505e-07 1.09306e-07 3.78008e-09
9.17183e-08 9.54857e-08 2.36066e-08
1.47789e-07 1.0076e-07 4.10863e-09
-4.9535e-08 1.0967e-07 1.68053e-08
1.67043e-08 1.1523e-08 -4.08157e-09
2.66256e-08 2.77942e-08 -1.08024e-08
2.06916e-07 -2.4283e-08 1.07454e-08
-9.13022e-09 1.13982e-07 5.90586e-09
-3.9539e-08 1.0751e-07 1.24244e-08
-1.48675e-07 4.40269e-08 -2.04596e-08
-1.89677e-07 7.90255e-09 6.99921e-09
-1.89574e-07 5.28555e-09 4.40818e-09
-1.4276e-07 4.42364e-08 -1.76296e-08
1.16495e-07 1.23071e-07 3.87214e-09
3.49147e-08 1.49815e-07 7.8231e-09
1.05193e-07 1.27557e-07 7.3985e-09
-1.41563e-08 -5.84832e-08 4.4156e-09
-1.52795e-07 2.79303e-08 1.74451e-08
-1.23614e-07 2.8672e-08 -1.11064e-08
-1.12783e-07 3.91539e-08 -1.10237e-08
-1.39756e-07 2.74765e-08 1.58697e-08
2.98471e-08 9.03779e-08 -2.00939e-08
2.78039e-08 8.60034e-08 -1.88102e-08
5.41159e-08 -7.43667e-08 8.25752e-10
6.11747e-08 -6.68572e-08 4.22046e-09
6.86831e-08 -6.31824e-08 2.10696e-10
-1.67251e-07 3.63967e-08 2.27763e-08
-3.32073e-08 6.44343e-08 -7.8624e-10
-9.0617e-08 1.38964e-08 -4.07858e-09
-1.51512e-07 6.2918e-09 8.1052e-09
2.60518e-07 4.43485e-08 -2.65773e-09
2.65354e-07 4.11485e-08 4.79926e-09
-1.66203e-07 3.10411e-08 2.11587e-08
-1.67784e-07 -8.67895e-09 1.5641e-09
-1.69665e-07 -6.72654e-09 8.24554e-10
-1.68301e-07 -3.92265e-09 3.46901e-09
-1.36397e-07 7.19717e-08 1.58338e-08
-1.36163e-07 7.93208e-08 1.42485e-08
1.0764e-07 -4.97279e-08 2.91063e-08
1.21049e-07 -4.00428e-08 2.34858e-08
1.98187e-07 4.4658e-08 7.78853e-08
2.45641e-07 5.10891e-08 1.29932e-08
2.48661e-07 5.01779e-08 2.35034e-08
4.26688e-09 1.16091e-07 1.56707e-08
-1.24892e-07 3.23588e-08 -1.14288e-08
-2.89341e-08 1.1862e-07 2.11041e-08
-3.43902e-08 1.15295e-07 2.58603e-08
-1.1393e-07 6.72404e-08 -1.53223e-08
-1.03544e-07 6.68593e-08 -1.16273e-08
-1.12127e-07 6.74913e-08 -1.67458e-08
1.17481e-07 8.77574e-08 3.06615e-08
-1.26235e-07 -1.62197e-08 -7.42898e-10
-1.27408e-07 -1.44576e-08 -5.09744e-10
-9.32031e-09 -2.73136e-08 4.00772e-09
1.26747e-07 -3.72286e-08 -1.9295e-08
1.31757e-07 -3.40691e-08 -1.22824e-08
-1.75987e-07 1.42663e-08 1.20337e-08
-1.72498e-07 1.31629e-08 1.14541e-08
1.19198e-07 8.7466e-08 3.75997e-08
1.22348e-07 9.19381e-08 3.75994e-08
-1.08964e-07 1.01266e-07 1.3604e-08
-9.92546e-08 1.11657e-07 5.47004e-09
-1.18325e-07 9.53821e-08 4.72552e-09
1.50489e-07 8.04582e-08 2.89218e-08
1.53924e-07 8.39458e-08 3.1669e-08
1.46529e-07 8.31597e-08 2.29425e-08
-8.01339e-08 8.47437e-08 1.77765e-08
-7.81701e-08 8.57975e-08 1.86201e-08
-1.65091e-07 4.8248e-09 -8.52838e-09
-1.5829e-07 -1.49403e-09 -5.58245e-09
-1.63935e-07 1.67145e-09 -8.07055e-09
-1.29805e-07 -2.90035e-08 3.11904e-09
-1.27934e-07 -2.86101e-08 7.25012e-11
-1.33884e-07 -2.95373e-08 -7.36258e-10
-1.36208e-07 -3.05535e-08 1.19402e-09
-1.26935e-07 -3.3845e-08 2.46719e-09
-1.25204e-07 -3.4019e-08 2.02057e-10
1.17476e-08 -6.95443e-08 4.98098e-09
1.27728e-08 -6.69083e-08 7.8512e-09
-1.21914e-07 -3.30142e-08 2.81604e-09
3.45214e-07 1.00236e-08 3.83378e-08
3.52003e-07 5.94093e-09 2.28996e-08
3.36451e-07 9.57692e-09 2.57793e-08
-1.36911e-07 7.01645e-08 -2.59291e-08
-1.16902e-07 7.41853e-08 -2.45427e-08
2.6602e-07 4.31415e-08 6.95178e-08
5.0096e-08 1.24729e-07 -3.04758e-09
2.26904e-07 4.7348e-08 6.55488e-08
-5.11057e-08 -4.2523e-08 -2.08028e-09
-4.73709e-08 -4.72396e-08 -3.1395e-09
2.24358e-07 5.03488e-08 8.02616e-08
-1.58562e-07 5.94803e-08 1.78471e-08
-1.60008e-07 5.56361e-08 2.28964e-08
-1.58093e-07 5.4267e-08 1.69296e-08
2.60911e-07 5.40713e-08 -3.1121e-08
-1.08113e-07 6.0746e-08 1.96538e-08
2.42257e-07 6.52209e-08 -4.0162e-08
2.41523e-07 6.08457e-08 -2.64296e-08
8.7968e-08 3.20138e-08 -2.5827e-08
5.26604e-08 1.726e-08 -1.11749e-08
7.84652e-08 1.34385e-08 -1.23382e-08
2.49218e-08 1.28234e-07 -5.50951e-10
8.57803e-09 1.17427e-07 6.41025e-09
-1.27316e-07 6.83702e-08 -2.1517e-08
-1.09403e-07 8.2163e-08 -2.33674e-08
-9.36831e-08 -7.27087e-10 -3.89566e-09
-9.96104e-08 8.27997e-08 -1.77166e-08
-1.90463e-07 2.10042e-08 -1.16023e-08
-1.88801e-07 1.94279e-08 -1.35554e-08
1.08372e-08 -2.41933e-08 5.32406e-09
-1.87361e-07 2.62607e-08 -1.68346e-08
-1.81153e-07 -7.62939e-09 -1.25027e-09
-1.81664e-07 -5.90262e-09 4.81471e-10
2.83712e-07 3.68936e-08 2.37163e-08
2.7909e-07 3.86445e-08 1.37894e-08
8.44298e-08 3.84061e-08 3.52098e-08
8.81608e-08 2.82659e-08 2.84019e-08
1.05992e-07 1.9726e-08 2.44589e-08
2.0244e-07 4.98561e-08 -4.99079e-08
1.56386e-07 -3.40225e-08 2.02704e-08
2.08281e-07 5.33663e-08 -6.79538e-08
-1.55358e-07 6.36195e-08 3.14464e-08
1.99532e-07 6.14194e-08 -6.73825e-08
2.35621e-08 4.79406e-08 2.12585e-08
2.63499e-08 4.46372e-08 2.17239e-08
-8.8231e-08 1.02618e-08 -4.19233e-09
1.08023e-07 -3.76226e-08 1.4052e-09
1.06597e-07 -4.04537e-08 5.1321e-09
-3.00874e-08 1.18991e-08 2.68882e-10
-1.30742e-07 -6.8463e-09 -3.434e-09
-1.61072e-07 -2.12998e-08 -3.06829e-09
-1.32955e-07 -2.86017e-09 -4.26195e-09
-6.55987e-08 -2.4374e-08 -4.55506e-10
-4.50826e-09 -7.1135e-08 -9.16191e-09
-5.49309e-10 -7.43862e-08 -8.69731e-09
-6.21889e-09 -7.30205e-08 -5.27384e-09
1.28196e-07 1.49331e-09 1.0241e-08
1.30204e-07 -1.94997e-09 8.52685e-09
1.11727e-07 -1.56503e-08 -7.03641e-09
-8.59431e-08 1.02613e-07 3.0458e-08
1.47358e-08 -4.51292e-08 8.61482e-09
1.59829e-08 -4.12012e-08 9.82297e-09
-8.74271e-08 9.72199e-08 2.74983e-08
-1.06259e-07 6.09411e-08 1.99174e-08
2.74561e-08 -8.46104e-08 -4.42874e-09
3.8412e-08 -7.68704e-08 -8.8828e-09
-9.34812e-08 5.96062e-08 1.52758e-08
-1.31856e-07 7.59219e-08 -2.62864e-08
-1.34442e-07 6.8002e-08 -2.54304e-08
-1.77528e-07 -2.56686e-09 2.99271e-09
-1.81693e-07 1.68448e-09 4.74055e-09
-1.80814e-07 -7.5295e-10 3.74509e-09
5.94877e-08 -5.58213e-08 -2.5132e-08
5.64712e-08 -5.77649e-08 -2.27903e-08
3.90911e-08 -6.09686e-08 -2.25741e-08
-1.32911e-07 -2.26543e-08 -4.24399e-09
-1.31157e-07 -2.38234e-08 -2.9873e-09
2.26742e-07 -4.75789e-09 1.48166e-08
-1.18539e-07 -4.05288e-08 -7.18022e-09
-1.30078e-07 -3.69821e-08 -6.91201e-09
-1.23297e-07 -3.72882e-08 -5.50009e-09
-1.10169e-07 -3.71668e-08 1.01707e-09
-1.03547e-07 -4.22974e-08 3.14845e-09
2.82789e-07 3.38981e-08 -5.5222e-08
2.26944e-07 5.0677e-08 -5.98701e-08
2.53924e-07 3.57366e-08 -4.9303e-08
1.44011e-07 -4.6637e-08 3.26765e-08
1.59429e-07 -3.76564e-08 2.50631e-08
1.60618e-07 -4.02346e-08 2.91678e-08
1.6282e-07 5.82465e-08 -5.37793e-08
1.60021e-07 6.21583e-08 -6.29669e-08
5.89072e-08 1.19383e-07 -1.02177e-08
2.92294e-07 -1.51116e-08 6.37739e-09
2.39699e-07 5.41329e-08 -9.84271e-09
2.36148e-07 5.29291e-08 -1.0881e-08
2.30739e-07 5.62812e-08 -8.01534e-09
7.82339e-08 -5.05755e-08 1.02527e-08
7.73024e-08 -5.53093e-08 8.50249e-09
7.65283e-08 -5.35907e-08 5.55463e-09
2.49712e-07 4.78998e-08 -7.44102e-09
-6.52722e-08 -2.08944e-08 5.0305e-10
2.42556e-07 4.8603e-08 9.23405e-10
1.00329e-07 -3.31681e-08 1.64652e-08
1.02255e-07 -3.56912e-08 1.7803e-08
2.26899e-07 6.32421e-08 -4.43731e-08
2.3346e-07 -1.22991e-08 4.25969e-09
2.2608e-07 7.11857e-08 -6.08042e-08
-2.18267e-08 6.87326e-08 1.42981e-08
-7.28122e-08 1.14766e-07 3.31263e-08
1.74913e-07 7.68071e-08 2.25567e-08
-5.87385e-08 -7.88588e-08 -2.81724e-09
-3.422e-08 -8.33034e-08 -1.00886e-09
-1.34117e-07 3.73925e-08 1.90676e-08
-4.39463e-08 -8.62287e-08 -4.09973e-09
-1.76377e-07 -1.2105e-08 -1.97478e-09
-1.78092e-07 -1.02795e-08 -2.73954e-09
-1.8082e-07 -9.01616e-09 -2.44041e-09
-1.60319e-07 5.72338e-08 1.53507e-08
-7.38926e-08 9.38787e-08 -1.01186e-08
-4.61929e-08 9.44308e-08 -4.63338e-09
-1.56473e-07 5.81031e-08 5.70183e-09
2.45501e-09 -5.94418e-08 8.16853e-09
-9.00744e-08 1.01352e-07 3.06335e-08
-1.41721e-07 -2.21416e-08 -3.0165e-09
-8.18894e-08 7.7528e-08 -8.593e-09
-1.33543e-07 -2.71197e-08 -4.5619e-09
-1.35659e-07 -2.64699e-08 -6.49156e-09
1.34664e-07 4.0617e-08 -4.23828e-08
1.34153e-07 -2.86289e-08 -2.03615e-08
1.32511e-07 -2.42699e-08 -1.61424e-08
1.31833e-07 4.50727e-08 -4.17888e-08
-7.84662e-08 -2.47426e-08 -1.80541e-09
1.2153e-07 2.56378e-08 -2.67834e-08
-1.02369e-07 -5.01346e-08 -6.51085e-09
-6.07548e-08 -3.87078e-08 -1.00894e-09
-1.5405e-07 -2.10291e-08 7.02334e-11
-1.51505e-07 -2.15884e-08 -1.13761e-09
-8.81808e-08 -5.52236e-08 -6.76976e-09
-9.96967e-08 -5.27709e-08 -4.67107e-09
7.67685e-08 1.1885e-07 5.04096e-10
7.50598e-08 1.17978e-07 -9.18261e-10
-1.41218e-07 7.39897e-08 -1.70462e-10
-1.42411e-07 7.06845e-08 -7.96239e-09
-1.32397e-07 8.10102e-08 -9.38438e-09
2.74162e-07 3.70603e-08 -4.3583e-08
2.15231e-07 6.16534e-08 -5.59355e-08
2.27528e-07 5.20841e-08 -5.60712e-08
2.17067e-07 6.1334e-08 -5.7626e-08
-1.83735e-07 1.30562e-08 -1.24318e-08
-1.79026e-07 1.86811e-08 -1.45343e-08
-1.85025e-07 1.57962e-08 -1.32005e-08
-1.08654e-08 1.23417e-07 1.52205e-08
-1.66251e-07 5.28659e-08 2.22875e-08
-3.51267e-08 1.11203e-07 1.8465e-08
-7.16082e-08 5.95446e-09 -2.66134e-09
1.71435e-07 6.52096e-08 7.51966e-08
-1.30703e-07 1.64511e-09 -5.70069e-09
-1.33035e-07 4.7897e-09 -6.26669e-09
-1.9034e-07 1.30099e-08 1.00927e-08
2.79566e-07 3.59347e-08 1.5623e-09
-1.91947e-07 1.44525e-08 8.88463e-09
1.19978e-07 7.78458e-08 6.03037e-08
1.7225e-07 6.10033e-08 6.26401e-08
3.19651e-07 1.26608e-08 -5.3953e-08
3.15872e-07 1.16174e-08 -4.88067e-08
1.57552e-07 7.08203e-08 6.35934e-08
-1.64512e-07 5.28486e-08 6.96052e-09
-1.70015e-07 5.30761e-08 2.5537e-09
-1.61464e-07 5.60134e-08 -6.87942e-09
-1.77662e-07 3.76954e-08 -2.04761e-08
-1.60207e-07 -1.73927e-08 -2.58099e-10
-1.64661e-07 -1.13712e-08 -3.61489e-09
-1.64582e-07 -1.4167e-08 -3.07945e-09
-1.6654e-07 -1.29358e-08 -1.66626e-09
2.82074e-07 4.61607e-08 -3.54898e-08
2.67021e-07 4.80671e-08 -4.11949e-08
1.12682e-07 -3.83154e-08 8.43319e-09
1.06336e-07 -3.83641e-08 9.84379e-09
2.84776e-07 4.61417e-08 -4.67526e-08
1.93513e-07 2.68318e-08 5.74618e-08
1.00106e-07 1.19871e-07 -2.78994e-08
9.97072e-08 1.16116e-07 -1.76041e-08
2.59756e-07 1.61227e-08 5.20584e-08
2.56139e-07 1.22736e-08 5.99126e-08
-7.17225e-08 1.16424e-07 2.45168e-08
1.83301e-07 8.36179e-08 1.1274e-08
9.2615e-08 1.28402e-07 9.77302e-09
1.56345e-07 9.40617e-08 2.02116e-08
1.20117e-07 7.97263e-08 6.78351e-08
9.53751e-08 6.33973e-08 4.70976e-08
1.40701e-07 -4.10613e-08 2.67261e-08
1.2567e-07 -4.81613e-08 3.24116e-08
-9.39726e-09 -6.98561e-08 5.05804e-09
-5.85542e-09 -7.55303e-08 5.06224e-09
-1.23479e-08 -7.33919e-08 8.36865e-10
1.04759e-07 1.3046e-07 1.38951e-08
1.23348e-07 1.19358e-07 1.02209e-08
5.0439e-08 -2.43368e-08 -1.04876e-08
-1.29896e-07 4.86181e-08 2.21546e-08
6.2033e-08 -3.37662e-08 -1.73767e-08
-1.42168e-07 -1.06665e-08 7.71868e-10
-1.45846e-07 -7.30133e-09 2.15705e-09
-1.15163e-07 4.89638e-08 1.83269e-08
-9.33036e-09 -5.80968e-08 -9.86263e-09
1.71366e-07 9.15222e-08 7.00932e-09
2.73847e-08 -7.14198e-08 -1.35263e-08
2.77371e-08 -7.05231e-08 -1.05479e-08
-8.96023e-08 -6.53076e-08 -2.51227e-09
9.66093e-08 8.45228e-08 4.15409e-08
1.05208e-07 8.81179e-08 5.19324e-08
-9.19489e-08 5.88717e-08 1.49074e-08
9.99768e-08 9.29136e-08 4.68582e-08
-7.33753e-08 7.21177e-08 1.36753e-08
8.03213e-08 7.61011e-08 -3.92822e-08
1.79665e-07 2.79305e-08 -4.42074e-08
1.78927e-07 3.05556e-08 -4.12306e-08
7.37002e-08 6.2968e-08 -2.95651e-08
7.66859e-08 7.95393e-08 -3.48382e-08
-1.39542e-07 6.57021e-08 3.18916e-08
-1.31375e-07 7.68665e-08 3.61527e-08
6.37979e-08 -5.98331e-08 2.20136e-08
7.58846e-08 -5.15966e-08 1.99611e-08
6.42844e-08 -5.5979e-08 1.85729e-08
-1.66067e-07 3.64793e-08 -1.90102e-08
-1.56746e-07 4.46432e-08 -2.19932e-08
-1.50452e-07 4.60811e-08 -1.9643e-08
4.2485e-07 -2.11089e-08 -3.27281e-09
1.48892e-08 1.1583e-08 -1.27281e-07
4.06272e-07 -1.57602e-08 -2.34848e-09
1.41247e-07 1.41694e-08 2.67425e-08
1.06777e-07 1.12397e-08 1.73219e-08
4.31867e-08 -6.45289e-08 -1.1589e-08
-1.84062e-07 8.60999e-09 7.75897e-09
-5.95565e-08 -6.27849e-08 -4.21323e-09
-1.83607e-07 3.50051e-09 5.15774e-09
-1.81823e-07 6.86175e-09 7.79195e-09
3.03979e-07 2.58229e-08 3.76435e-08
-5.02126e-08 -5.72025e-08 -4.45052e-09
-5.88536e-08 -5.00694e-08 -3.76394e-09
8.96959e-08 9.47675e-08 3.47151e-08
9.00612e-08 1.02018e-07 4.14857e-08
-6.11885e-08 -5.48379e-08 -5.6409e-09
-1.50667e-07 6.28024e-08 3.32759e-08
-1.49483e-07 3.70111e-08 2.17449e-08
-1.47405e-07 3.67501e-08 2.1379e-08
-8.53907e-08 -1.61396e-08 1.02025e-10
-7.04617e-08 -1.46154e-08 8.52264e-10
-9.04217e-08 -1.07382e-08 1.14128e-09
1.60528e-07 -3.05046e-08 -7.4296e-09
2.52204e-07 4.62018e-08 4.94088e-09
-7.03474e-08 -4.67748e-08 2.30842e-09
2.42432e-07 5.02724e-08 1.41661e-08
2.57254e-07 4.65625e-08 3.55616e-09
-1.01805e-07 6.30299e-08 -1.2129e-08
1.44701e-07 9.08984e-08 1.99437e-08
-1.22588e-07 6.72997e-08 -2.00311e-08
2.54133e-07 2.80163e-08 6.65454e-08
2.68296e-07 1.89258e-08 6.33906e-08
-4.75885e-08 1.08388e-07 1.90899e-08
-7.84886e-08 1.00039e-07 2.31953e-08
-7.71659e-08 1.02978e-07 2.2989e-08
-1.86051e-07 1.99567e-08 1.44731e-08
-1.84151e-07 1.83354e-08 1.46433e-08
-7.91242e-08 9.47729e-08 2.52433e-08
1.58215e-07 -4.23415e-08 3.18859e-08
1.35799e-07 -3.41877e-08 2.02693e-08
1.34199e-07 -3.25681e-08 1.90162e-08
1.73799e-07 -3.56075e-08 2.17609e-08
1.52881e-07 -3.58124e-08 2.00321e-08
8.63126e-08 -2.9342e-08 -1.74302e-08
8.66577e-08 -3.3018e-08 -1.80135e-08
8.62577e-08 -4.72181e-08 1.93677e-08
-9.10446e-08 -3.27557e-08 1.47113e-09
6.74263e-08 -5.45214e-08 2.07134e-08
7.98337e-08 -5.43367e-08 2.30427e-08
-7.40956e-08 -6.22239e-08 1.32732e-09
-7.40438e-08 -6.25253e-08 2.7416e-09
-7.85619e-08 -5.80913e-08 2.63549e-09
1.89677e-07 7.658e-08 6.09046e-08
1.89357e-07 6.67467e-08 4.39319e-08
1.82533e-07 7.15905e-08 4.29798e-08
1.50245e-07 8.59285e-08 2.61892e-08
1.46062e-07 9.15331e-08 -4.58731e-08
-1.33885e-07 7.24987e-08 -2.64665e-08
2.62141e-07 5.81102e-08 -4.68506e-08
2.61681e-07 4.49904e-08 1.30333e-08
1.4347e-07 8.63261e-08 -4.05829e-08
1.30645e-07 1.12637e-07 7.44037e-09
1.91133e-07 7.18895e-08 7.50338e-09
-1.10105e-07 7.61209e-08 2.83329e-08
-1.08142e-07 8.45721e-08 2.82826e-08
-1.41676e-07 5.54753e-08 -2.17757e-08
-1.39205e-07 6.04317e-08 -2.11084e-08
-1.38563e-07 6.46145e-08 -2.33479e-08
-1.67184e-07 5.36941e-08 -2.15229e-08
3.13378e-08 1.41927e-07 6.38791e-09
-1.68099e-07 5.04813e-08 1.3695e-08
2.30895e-08 1.38596e-07 1.28318e-08
2.37704e-07 5.29756e-08 8.85798e-09
2.30781e-07 5.24858e-08 5.65623e-09
-1.85091e-07 3.18857e-08 2.11197e-08
-4.60602e-08 6.41995e-08 6.26094e-09
-1.84978e-07 3.06695e-08 1.89596e-08
-1.29747e-07 7.42642e-08 3.20651e-08
1.74644e-07 7.89264e-08 1.93218e-08
-6.72386e-08 -7.98364e-08 -3.98134e-10
-7.69838e-08 -7.23892e-08 -1.68974e-09
-8.22721e-08 -7.17653e-08 -2.11331e-09
-1.7841e-07 2.78715e-08 -1.91536e-08
-1.71856e-07 3.5246e-08 -2.06497e-08
-1.80068e-07 2.96601e-08 -1.8278e-08
-1.88659e-07 3.71112e-08 1.48085e-08
-1.78962e-07 4.38448e-08 2.57991e-08
-1.77944e-07 4.08236e-08 2.16328e-08
1.29336e-07 1.01663e-07 1.94048e-08
-7.02913e-08 -4.99689e-08 -5.28812e-09
-6.83525e-08 -4.80981e-08 -5.65508e-09
2.38294e-07 5.17214e-08 5.80734e-09
4.15576e-08 -3.97652e-08 1.29669e-08
3.25206e-08 -4.67082e-08 1.30253e-08
2.25541e-07 5.8379e-08 4.98893e-09
2.31857e-07 5.4969e-08 -5.44644e-10
3.44492e-08 1.37426e-07 6.71501e-09
1.5492e-08 1.29006e-07 1.43648e-08
2.64615e-08 1.27177e-07 7.71655e-09
-1.33627e-07 3.47503e-08 -1.45943e-08