# vtk DataFile Version 2.0
S, Created by Mohamad Ibrahim Cheikh
ASCII
DATASET UNSTRUCTURED_GRID
POINTS 2818 double
-95.4793 -25.4721 -13.079
-98.8572 -23.2849 -14.0475
-53.9149 -31.8883 23.733
-49.6638 -32.3506 24.2377
-6.92292 2.2591 -43.8751
-20.5196 34.6052 -26.2094
-10.2276 -8.20698 43.0794
1.43035 33.7248 -28.2557
0.276711 36.1016 -25.1528
123.272 -5.09848 -7.03973
122.006 -2.87458 -10.2616
124.007 3.41607 -6.45068
122.469 1.55322 -9.86319
-13.209 35.4238 -25.6865
-10.1815 36.4894 -24.3275
-12.0098 10.4317 -42.5385
-4.51487 1.06497 -43.9587
-97.6375 7.04772 26.8177
34.6833 -7.65694 41.5944
-96.8084 10.3735 26.0958
-76.5771 -16.8934 30.5397
-72.7586 -17.3341 31.423
-87.7517 23.4983 -21.0017
-91.4613 21.6332 -21.0678
-26.1104 5.74713 42.6556
-66.4487 -14.6872 34.3468
-70.2494 -14.5907 33.4502
12.4749 6.38742 -43.3145
-64.2842 -14.901 -34.7566
-61.0313 -13.2717 -36.1086
-52.1427 -33.7393 -21.559
-55.2979 -32.0352 -23.1381
-100.736 -0.346893 26.3342
-97.4066 -0.953333 27.8112
-41.073 -20.6193 36.1152
-37.999 -21.9528 35.7393
19.7179 -8.70787 -42.5743
-28.2936 -23.727 35.7074
-31.7524 -24.194 35.0316
12.0775 -16.0386 -40.7542
8.63682 -17.2761 -40.3535
-45.5293 -36.2967 19.0988
-41.7349 -35.7517 21.0848
-63.4888 31.774 -20.8066
-66.7676 30.2013 -21.8654
-78.4905 32.5503 11.0549
-81.4089 30.9514 12.9079
-90.6299 29.8543 6.25343
-89.6242 30.7559 2.5794
-79.7713 6.77076 -33.3328
-77.4171 9.15051 -33.4439
-113.082 9.75839 16.5888
4.7442 6.28283 -43.5175
-109.811 12.7443 17.2416
41.7612 -26.8749 -31.6263
43.618 -24.5183 -33.1953
-97.9956 22.1884 16.3694
-99.7294 19.9278 17.922
-59.1645 -34.0926 18.5778
-61.2077 -34.9911 15.9044
-61.7388 -28.683 -25.4288
-61.6324 -31.3936 -22.0314
-85.7483 30.7763 -9.41359
-89.1734 29.1116 -10.7219
-9.57315 -18.1005 39.9644
-12.6867 -16.2949 40.6297
-61.135 -36.2425 12.8412
-65.7879 10.2326 -36.0751
-58.8631 -37.5217 10.194
-58.65 -32.8675 -20.8467
-76.6494 -27.6262 -21.2955
-80.6821 -21.5886 -25.9415
20.7714 25.4407 -35.1561
23.6685 23.1292 -36.5028
-77.4378 -22.7992 -26.1156
-61.885 -19.9214 -32.7148
52.5379 -16.1294 -36.5774
49.2212 -14.3158 -37.874
76.3606 33.8257 -8.82814
79.6203 33.2836 -7.21581
-64.818 -18.0722 -33.0911
-105.525 -9.41456 -22.001
-103.992 -12.7348 -21.2092
-94.1705 20.1154 21.1104
-91.8954 22.9102 19.4223
-78.4399 -25.3024 -23.2915
-72.9174 -28.2092 -22.1198
-68.723 -4.55368 -36.5656
-98.0347 -4.13609 -27.244
-65.0122 -9.15383 -36.5341
-64.8139 -24.1921 -28.9211
-62.0166 -22.7679 -30.7693
-65.3543 -5.90795 -37.1238
-103.069 23.3262 -9.55455
-99.8578 23.7551 -12.2828
31.4486 -13.1642 40.5169
28.2169 -15.0606 40.146
-93.6006 -29.1096 -4.00064
1.14092 11.5664 -42.4507
1.1794 8.15365 -43.236
-89.9326 -30.1799 -5.91362
-86.7806 -31.5866 -4.0343
91.1679 12.6857 27.5224
87.5438 12.8239 28.8661
34.1805 35.032 -23.7849
37.8725 34.3279 -24.1244
-103.588 -6.42322 -24.1039
-105.035 -2.78194 -24.0325
-76.5621 28.6475 -19.9415
-73.4569 26.1356 -24.3373
-102.223 22.4136 12.4212
-105.257 20.243 13.0315
23.5105 -10.1219 -42.0223
23.9561 -35.8563 24.0845
27.6623 -34.3843 25.6912
71.2772 -5.50114 -35.8293
74.6625 -5.77245 -34.9312
-40.5251 -5.09869 -41.3393
-44.5778 -4.3291 -40.9141
-115.015 17.1847 -4.59423
-111.246 19.6921 -5.74896
-45.5246 -37.9464 15.567
-42.0248 -38.9863 14.1365
-115.774 13.9825 -9.97321
-112.472 16.1066 -11.3061
105.313 -20.2923 -12.8982
108.791 -17.977 -12.7981
-73.0968 28.7051 -21.3975
-124.72 3.54623 4.35756
-109.139 -14.5676 -16.2931
-124.535 5.74761 2.04864
61.1012 -21.5193 -31.8723
59.9561 -24.706 -29.7575
-117.057 14.654 6.60814
-70.8191 13.7345 -33.665
-114.414 17.112 6.36421
-63.6328 -11.4667 36.177
11.2509 13.0797 41.8261
7.44837 15.0965 41.2469
26.3215 40.1133 15.5597
-57.5224 -4.98955 38.8073
-56.2916 -9.2402 38.2448
-22.1431 -27.5259 -33.4409
-6.50409 -42.5256 11.0632
-3.45823 -43.0336 9.09086
-19.9978 -24.7422 -35.7052
-121.381 10.4818 4.72566
-125.405 -0.332364 3.23807
-123.02 8.77641 2.4717
56.7105 3.03865 39.1538
-14.3382 -31.4979 30.3103
-3.97468 -19.7415 -39.2981
-9.09738 -16.6353 -40.6095
-9.98332 -28.1562 33.6307
-19.1121 8.53094 42.6439
-23.5151 8.46894 42.386
120.086 12.7279 2.91208
117.216 15.3105 4.40983
115.573 17.2172 2.05773
-26.6521 -34.299 25.9348
-15.2271 -1.48873 43.6508
6.48676 -9.52557 -42.8965
6.10035 -31.776 30.36
-61.2314 38.4197 0.947337
-57.4349 39.142 0.179602
-21.8464 -35.027 25.5084
22.2671 -39.3991 17.9723
17.7566 -39.4453 18.4787
14.9689 -38.326 20.9686
-99.0785 -26.6625 4.8235
-102.605 -25.047 4.4401
40.8804 30.16 28.6665
38.1395 32.366 26.6525
-3.58216 36.9919 -23.7913
-64.5059 35.9335 -11.6338
-60.3823 36.7516 -11.7869
-87.3852 -6.4057 30.9849
-7.51281 -19.7296 -39.2407
-87.4159 -10.6027 29.7997
-89.9648 -12.2976 28.1754
-32.6102 -17.822 -38.5769
-26.5835 -14.1759 -40.602
-28.6815 -17.758 -38.9864
-60.086 18.6225 -33.8702
31.9936 -28.2799 31.7951
27.9923 -27.3029 33.085
28.9497 6.12089 42.3784
70.6926 35.5867 -7.59918
67.9994 36.5571 -5.78534
-9.32671 -38.4981 21.0534
-6.3284 -37.2586 23.3
-56.8971 20.6224 -33.3823
-53.8583 19.6481 -34.5661
-114.512 -18.1306 1.35719
-117.416 -15.7458 -0.423047
-112.261 -19.8011 -0.987887
-81.0868 23.8219 -23.7387
-77.3069 23.5532 -25.4864
-84.5743 21.7714 -24.2133
-39.0175 -14.6478 39.1798
-35.6684 -14.4989 39.6235
7.29133 -34.671 -26.9706
14.5961 -33.395 -28.1902
11.7062 -35.1605 -26.1335
56.014 -31.0423 -24.2537
60.1546 -30.7614 -23.3819
64.5722 -32.9714 -18.3958
65.8285 -34.0937 -15.591
67.7821 -30.567 -20.9561
71.4169 -30.2442 -19.921
108.079 5.73462 21.7487
104.278 7.12424 23.5359
63.0848 -28.6948 -25.0074
-9.77691 42.541 -10.7031
-11.7796 43.3785 -6.10884
-12.7621 42.7605 -9.35921
-58.1756 -27.0857 -28.0715
-58.4625 -24.0547 -30.6418
-19.3159 38.4445 -20.3061
-84.4015 2.094 32.5494
-18.3667 36.6486 -23.4857
51.2239 -4.61957 -39.9176
54.3764 -2.99531 -39.5604
-14.9181 37.2329 -22.8575
-83.3737 -32.1506 7.16254
-76.8304 -33.6365 9.04914
-79.5457 -33.3485 7.0141
-46.1626 34.4952 22.0268
-27.242 -19.9666 38.0326
-48.6109 32.3522 24.4954
-52.4224 31.6026 24.5117
7.63828 25.4954 35.7609
11.5385 20.5806 38.68
11.5621 24.2653 36.4805
-78.3683 -0.798996 34.4012
-76.2383 -3.74583 34.7904
-49.4499 -24.0904 -32.5004
-52.1464 -20.8422 -34.186
17.2845 -11.4788 -42.0436
-49.8887 -17.597 -36.3543
-24.2892 -40.784 -14.1574
-20.1583 -40.7842 -14.9298
25.7771 11.6336 41.4645
-27.593 -39.6709 -16.4013
19.0985 -43.1872 5.11932
16.0618 -42.8988 8.00685
-45.7269 40.1805 -8.09526
-49.9408 39.6452 -7.67509
2.53887 28.4624 -33.5425
5.92304 29.2629 -32.7931
7.04008 31.4114 -30.7124
-10.1042 31.5113 30.5048
49.3879 38.5251 12.3769
-5.03355 33.7437 28.1826
-70.8884 -32.2685 16.7185
-6.81591 31.8437 30.2703
-2.59345 17.0052 -40.5709
0.566181 18.398 -39.9684
10.6965 -8.84337 -42.9393
85.6951 32.1214 2.26504
88.706 30.9963 3.44311
10.0264 2.12502 43.8084
21.1871 -23.8744 -36.2085
48.7651 -40.3365 -4.22195
16.9825 -24.8822 -35.799
31.4339 -9.61664 41.5036
109.338 3.49962 -21.4505
115.112 3.63 -17.3353
112.308 1.88316 -19.7036
12.0635 33.8572 -27.7826
15.6387 34.4476 -26.8219
18.9669 32.6508 -28.7382
-60.7547 -18.7257 33.6666
40.2032 10.7989 40.2678
37.0154 12.7565 40.069
-64.4839 -18.7605 32.7865
-23.4242 -19.3204 38.6723
123.009 7.24577 -5.56438
120.414 10.1469 -7.6053
-22.3732 -16.0774 40.2024
-70.6851 -26.4995 -24.9412
-67.2669 -28.1502 -24.2814
11.2877 -41.0702 15.2853
4.44144 -41.3682 14.9082
8.0294 -41.9227 13.0611
78.095 23.1847 -25.5301
74.8154 21.4952 -28.0833
75.511 18.4627 -29.9507
41.8451 -31.8238 26.6246
45.7524 -31.1265 26.6619
11.0079 40.4813 -16.8057
78.2358 -28.9942 18.6
75.8412 -32.5807 13.0495
75.664 -30.7533 17.0093
73.1729 -25.5612 -25.042
76.055 -23.1694 -26.2868
-11.4064 37.9298 21.9409
-12.0405 33.9666 27.65
-10.253 36.1267 24.8594
39.6797 34.5581 23.4302
36.9225 36.481 20.934
33.149 36.0096 22.4672
-4.66428 29.1818 32.8901
-1.69832 30.1888 32.0045
-81.5837 5.00785 33.1064
13.5937 42.4585 -10.5193
-64.961 33.7612 16.7192
-66.6826 34.7533 13.5579
-71.0697 33.4598 14.0733
103.113 23.2952 9.57147
106.352 21.5085 9.41327
108.083 21.3969 6.92531
-64.4834 37.1493 6.8446
27.8421 -8.09134 42.1382
-68.0223 36.6378 5.21339
28.6623 28.7269 31.7834
32.707 29.1679 30.8911
-35.7449 31.0691 28.5356
14.4869 41.2219 -14.5279
-32.0932 31.6413 28.4381
-11.3624 7.04321 -43.2503
-110.556 -15.6421 13.9607
-85.7134 26.047 -18.9231
121.467 -9.10733 6.83206
121.827 -3.98899 10.1487
-13.7904 -26.0366 35.1399
123.071 -5.68139 7.02365
28.5153 -42.8525 0.337018
24.7476 -43.1302 0.894379
22.3905 -43.2486 -2.04548
-84.2934 -32.5208 2.91193
-47.6811 -11.2737 -39.1224
-47.8298 -7.20718 -40.0496
-87.3938 -31.6282 0.754894
71.4527 7.0173 35.5203
-108.187 -18.4337 12.7761
45.2079 -34.8559 21.699
-28.4722 -10.3675 -41.5844
52.4765 -32.5981 23.1564
48.3425 -33.051 23.6117
4.21985 29.9662 32.1846
26.9331 35.6326 -24.0314
23.3976 35.4618 -24.7272
1.1684 28.6507 33.3912
33.3641 -8.76208 -41.5083
7.60902 28.6769 33.2648
97.3992 -24.0758 13.9609
40.8144 -5.75361 -41.2183
45.3899 -36.9979 -17.7459
48.7383 -37.4455 -15.5888
102.038 -19.9202 16.2627
100.963 -22.479 13.5164
-109.417 5.55392 20.9621
-113.064 5.96648 18.3116
-100.033 -26.084 -5.52451
-96.654 -27.3129 -6.80136
-102.785 -24.1853 -7.59074
-17.7713 36.268 24.1239
-24.86 31.9934 28.9268
-18.3115 33.7905 27.4436
-21.16 31.8629 29.4268
-7.74699 -39.7249 -18.7238
-12.3669 -37.7678 -22.1556
-11.5119 -39.554 -18.8482
-78.3059 -7.71169 33.5531
-70.2915 -34.7176 11.2146
-76.3939 -10.9356 33.1949
11.7765 -4.82079 -43.5406
-14.9268 32.9749 -28.6597
14.1914 -22.794 -37.3065
10.6335 -23.5719 -36.9665
-13.5515 -42.0737 11.9716
-50.1606 40.2711 2.48798
-17.2113 -42.3022 10.5002
-20.7625 26.8531 -34.0901
-19.0317 32.1827 -29.2563
0.682032 40.784 16.5107
4.02213 39.8388 18.625
-21.105 29.8681 -31.4541
-80.6708 -33.7413 0.878724
-79.4157 -34.0002 -2.79947
-82.357 -32.6958 -6.04813
-41.668 -37.5302 -17.7459
37.9696 -37.8275 -18.1266
29.058 -37.7082 -20.266
34.2097 -39.1197 -16.1978
30.3864 -39.0195 -17.3331
-39.2357 37.1524 19.1631
-33.898 35.8989 22.5075
82.4297 32.8614 4.92468
[...]
POINT_DATA 2818
VECTORS F double
-5.1448e-07 2.8575e-07 -9.66905e-08
-4.98538e-07 3.17306e-07 -9.6427e-08
-5.5687e-07 9.87894e-08 -2.2145e-08
-5.54969e-07 9.56696e-08 -1.15284e-08
-7.38089e-08 1.93463e-07 1.1387e-08
5.55143e-07 1.96682e-07 2.06474e-07
-1.90276e-07 1.20027e-08 -3.24378e-09
4.79556e-07 7.91053e-08 9.7388e-08
5.43071e-07 8.40793e-08 1.21409e-07
-1.46826e-07 -4.52167e-07 1.26697e-08
-7.46778e-08 -4.13516e-07 7.11677e-09
1.11829e-07 -4.53702e-07 2.291e-08
6.1456e-08 -4.26372e-07 2.62671e-08
5.48393e-07 1.53694e-07 1.7743e-07
5.54541e-07 1.40257e-07 1.8196e-07
5.79597e-08 2.20028e-07 5.19538e-08
-7.72828e-08 1.8391e-07 5.42718e-09
1.70616e-07 2.91843e-07 -6.44798e-10
-1.82304e-07 -2.15885e-07 -2.11301e-08
2.67371e-07 2.7352e-07 1.2708e-08
-3.1002e-07 2.00052e-07 1.54886e-08
-3.08126e-07 2.07366e-07 2.70431e-08
4.35605e-07 3.37788e-07 1.55106e-07
4.25919e-07 3.48095e-07 1.31058e-07
5.13256e-08 1.05915e-07 -1.04235e-08
-2.6355e-07 2.02646e-07 2.42311e-08
-2.66705e-07 1.87738e-07 1.33155e-08
4.01929e-08 1.1782e-07 1.87914e-08
-3.20554e-07 3.29801e-07 -6.88074e-08
-3.18845e-07 3.41085e-07 -5.93861e-08
-6.01705e-07 1.99516e-07 -1.34066e-07
-5.90932e-07 2.24123e-07 -1.37399e-07
2.41357e-08 2.91543e-07 1.51448e-08
2.49004e-08 2.92576e-07 2.07075e-08
-3.97091e-07 1.07252e-07 5.94422e-09
-4.00088e-07 9.19111e-08 4.37641e-09
-2.0525e-07 1.04899e-07 -3.3094e-08
-4.41825e-07 6.06628e-08 -2.55186e-09
-4.43879e-07 5.68523e-08 -9.99272e-09
-3.23878e-07 1.36141e-07 -6.53289e-08
-3.27169e-07 1.35469e-07 -6.65702e-08
-6.232e-07 7.65828e-08 -3.63432e-08
-6.21938e-07 7.14108e-08 -2.96328e-08
5.6607e-07 2.46777e-07 1.65383e-07
5.52631e-07 2.67701e-07 1.63156e-07
6.89814e-07 1.77991e-07 7.55541e-08
6.61132e-07 1.91298e-07 5.17933e-08
6.48916e-07 2.24412e-07 8.00641e-08
6.67073e-07 2.30956e-07 8.38916e-08
6.825e-08 4.11595e-07 6.36082e-08
1.04268e-07 3.7919e-07 7.41989e-08
2.96614e-07 3.71063e-07 2.92746e-08
2.09125e-08 1.46148e-07 2.13789e-08
3.42431e-07 3.27911e-07 2.46365e-08
-4.4734e-07 3.50804e-08 -1.02129e-07
-4.01112e-07 1.82454e-08 -7.80042e-08
5.2647e-07 2.54049e-07 4.15107e-08
4.74642e-07 2.7366e-07 1.90791e-08
-5.95437e-07 1.11431e-07 -2.76729e-08
-6.00217e-07 1.14584e-07 -3.07073e-08
-5.23285e-07 2.50592e-07 -1.27116e-07
-5.84813e-07 2.33945e-07 -1.33064e-07
6.20928e-07 2.48653e-07 1.20458e-07
5.97945e-07 2.73777e-07 1.34488e-07
-3.41181e-07 -1.70515e-08 -1.77287e-08
-3.28678e-07 6.81764e-09 -9.83051e-09
-6.32486e-07 1.17178e-07 -3.79382e-08
1.09758e-07 3.75162e-07 8.19074e-08
-6.57146e-07 1.09399e-07 -6.1897e-08
-5.90409e-07 2.13784e-07 -1.33695e-07
-5.32996e-07 2.74429e-07 -1.21136e-07
-4.50773e-07 3.27494e-07 -1.00897e-07
3.57318e-07 3.30665e-08 4.97753e-08
3.455e-07 1.94759e-08 3.97672e-08
-4.53239e-07 3.15298e-07 -1.1072e-07
-3.92165e-07 3.04725e-07 -9.47363e-08
-2.58355e-07 1.61301e-09 -4.61442e-08
-2.54984e-07 1.34554e-08 -4.56571e-08
6.07904e-07 -1.37733e-07 1.16025e-07
6.00684e-07 -1.47223e-07 1.32391e-07
-3.82768e-07 3.26821e-07 -8.66956e-08
-2.39812e-07 4.38128e-07 -4.66603e-08
-3.14147e-07 3.98449e-07 -5.0665e-08
4.66059e-07 2.58484e-07 8.23755e-09
5.28094e-07 2.2996e-07 3.46554e-08
-4.92108e-07 3.0547e-07 -1.2894e-07
-5.32052e-07 2.72977e-07 -1.33395e-07
-1.71268e-07 3.77806e-07 -7.64143e-09
-1.50771e-07 4.47629e-07 -1.53598e-09
-2.48241e-07 3.56684e-07 -3.52867e-08
-4.58405e-07 2.85971e-07 -1.13437e-07
-4.54023e-07 2.95604e-07 -1.06698e-07
-1.7216e-07 3.71321e-07 -2.19873e-08
5.08331e-07 3.24672e-07 1.21281e-07
5.12913e-07 3.27158e-07 1.22199e-07
-2.6735e-07 -1.97307e-07 -3.87001e-08
-2.80904e-07 -1.78709e-07 -4.28699e-08
-5.75839e-07 2.35695e-07 -6.55256e-08
9.51969e-08 1.54996e-07 4.25443e-08
2.2851e-08 1.54891e-07 2.92861e-08
-5.86081e-07 2.31707e-07 -9.12921e-08
-6.00966e-07 2.11332e-07 -7.19461e-08
2.00479e-07 -3.87743e-07 9.74155e-08
1.99133e-07 -4.01584e-07 1.04468e-07
5.9025e-07 -5.54466e-08 2.2183e-08
5.93387e-07 -5.3959e-08 3.72685e-08
-1.79341e-07 4.25069e-07 -1.89126e-08
-9.55362e-08 4.61976e-07 -2.35835e-09
5.14206e-07 2.71448e-07 1.48252e-07
4.4149e-07 2.98401e-07 1.57305e-07
5.35595e-07 2.70838e-07 5.09326e-08
5.1117e-07 2.97194e-07 4.3832e-08
-2.02352e-07 1.03923e-07 -3.88925e-08
-6.05191e-07 -1.17473e-07 -1.0119e-07
-5.95515e-07 -1.33825e-07 -1.00604e-07
-8.65984e-08 -6.4686e-08 -1.11604e-08
-8.21927e-08 -4.91338e-08 -1.33896e-08
-1.84886e-07 3.14091e-07 -1.65497e-08
-1.88053e-07 3.12693e-07 -8.00131e-09
4.49269e-07 3.91123e-07 8.59464e-08
4.79838e-07 3.64852e-07 1.1293e-07
-6.58276e-07 7.97386e-08 -4.13158e-08
-6.66301e-07 6.69492e-08 -5.78701e-08
3.58213e-07 4.25783e-07 8.78316e-08
3.84694e-07 4.0871e-07 1.13709e-07
-4.31466e-07 -2.40951e-07 -5.22353e-08
-4.08308e-07 -2.70299e-07 -4.52653e-08
5.23287e-07 2.8465e-07 1.63004e-07
1.28306e-07 4.96227e-07 4.58276e-08
-3.59438e-07 3.93039e-07 -5.66415e-08
1.97394e-07 5.04554e-07 5.36578e-08
-3.54672e-07 -2.13771e-08 -6.88113e-08
-4.29161e-07 -1.45301e-08 -9.38007e-08
4.20641e-07 3.86156e-07 5.59508e-08
2.05764e-07 3.60411e-07 9.40439e-08
4.58523e-07 3.51402e-07 6.43889e-08
-2.22653e-07 1.83158e-07 1.01071e-08
1.45889e-07 -9.67853e-08 2.54622e-08
1.58662e-07 -6.81715e-08 2.14436e-08
7.08198e-07 -1.01516e-07 1.15037e-07
-9.46925e-08 1.94866e-07 7.87069e-09
-1.86692e-07 1.64763e-07 6.16594e-09
-5.14982e-07 1.95736e-07 -1.19366e-07
-7.11164e-07 -1.40341e-08 -1.05131e-07
-7.15155e-07 -1.75764e-08 -1.16508e-07
-4.77523e-07 1.88892e-07 -9.81503e-08
3.2794e-07 4.42584e-07 4.96187e-08
-2.98402e-09 5.17604e-07 3.90315e-08
2.81261e-07 4.65623e-07 6.06451e-08
4.18074e-09 -3.25878e-07 2.455e-08
-5.47307e-07 -1.52964e-08 -4.7593e-08
-3.81448e-07 1.76828e-07 -8.41072e-08
-3.3956e-07 1.99462e-07 -7.23948e-08
-4.92803e-07 -2.62375e-08 -3.98763e-08
7.88414e-08 9.86309e-08 -1.54048e-08
7.51806e-08 8.87017e-08 -1.26163e-08
3.4122e-07 -4.14935e-07 9.08682e-08
3.75865e-07 -3.85372e-07 1.14813e-07
4.16965e-07 -3.55309e-07 1.05714e-07
-6.04054e-07 2.34706e-08 -4.49594e-08
-8.82548e-08 3.1225e-08 -2.70393e-09
-2.22444e-07 1.38156e-07 -3.47973e-08
-5.5926e-07 -7.99181e-08 -6.98871e-08
7.90096e-07 1.51794e-07 9.62266e-08
8.00842e-07 1.43329e-07 1.17896e-07
-6.02065e-07 1.28209e-08 -4.55235e-08
-6.59705e-07 -9.8419e-08 -1.15686e-07
-6.63273e-07 -9.19467e-08 -1.1824e-07
-6.49793e-07 -8.64018e-08 -1.01131e-07
-5.27896e-07 2.35459e-07 -2.60308e-08
-5.23044e-07 2.57612e-07 -2.65932e-08
4.79018e-07 -2.20908e-07 1.48784e-07
5.11271e-07 -1.87521e-07 1.38147e-07
5.59173e-07 1.09212e-07 1.595e-07
7.17014e-07 2.01612e-07 1.35981e-07
7.22929e-07 1.99099e-07 1.67375e-07
-8.29316e-08 2.55717e-07 2.42315e-08
-3.83728e-07 1.7162e-07 -7.72934e-08
-1.88136e-07 2.53523e-07 2.26361e-08
-2.04988e-07 2.58985e-07 3.29043e-08
-3.8707e-07 2.45968e-07 -7.35749e-08
-3.31919e-07 2.38633e-07 -5.67109e-08
-3.84673e-07 2.5405e-07 -8.10712e-08
2.83901e-07 3.27466e-07 1.18386e-07
-4.86603e-07 -1.60518e-07 -8.28238e-08
-4.86751e-07 -1.55222e-07 -7.76741e-08
5.12645e-08 -1.95131e-07 2.38964e-08
6.35419e-07 -1.29792e-07 1.15884e-07
6.43732e-07 -1.2589e-07 1.30848e-07
-6.46308e-07 -2.48701e-08 -8.05306e-08
-6.36436e-07 -3.72163e-08 -8.06744e-08
2.8859e-07 3.2147e-07 1.38372e-07
2.91179e-07 3.28731e-07 1.31311e-07
-4.37025e-07 3.37593e-07 -4.58731e-09
-4.0725e-07 3.72336e-07 -1.9831e-08
-4.67015e-07 3.25815e-07 -3.3182e-08
4.13501e-07 3.19583e-07 1.47776e-07
4.18634e-07 3.30212e-07 1.49699e-07
4.04877e-07 3.30883e-07 1.24372e-07
-2.93689e-07 1.02539e-07 2.52796e-09
-2.91638e-07 1.14007e-07 9.57627e-09
-5.87511e-07 8.34691e-08 -1.26746e-07
-5.64216e-07 7.20693e-08 -1.21142e-07
-5.8331e-07 7.8021e-08 -1.36961e-07
-5.24425e-07 -2.9423e-08 -1.10625e-07
-5.18961e-07 -2.93662e-08 -1.24827e-07
-5.68057e-07 -6.00225e-08 -1.36543e-07
-5.95425e-07 -8.127e-08 -1.30075e-07
-5.38343e-07 -6.92766e-08 -1.12136e-07
-5.33458e-07 -7.51916e-08 -1.19987e-07
1.02187e-07 -4.46328e-07 5.55166e-08
1.10524e-07 -4.3833e-07 7.27295e-08
-4.95396e-07 -4.19702e-08 -1.04844e-07
9.1211e-07 7.1715e-08 1.83033e-07
9.7942e-07 5.51668e-08 1.60512e-07
9.0257e-07 7.12736e-08 1.74955e-07
-5.20661e-07 2.63883e-07 -1.22511e-07
-4.55548e-07 2.82208e-07 -1.15131e-07
6.96247e-07 1.60316e-07 2.22433e-07
7.37549e-08 2.77037e-07 5.59267e-09
6.1206e-07 1.61587e-07 1.93549e-07
-7.5391e-08 1.76023e-08 -1.38819e-08
-6.24624e-08 -3.0022e-09 -1.02844e-08
6.11367e-07 1.61126e-07 2.13608e-07
-5.97391e-07 1.80281e-07 -4.2123e-08
-6.0399e-07 1.59578e-07 -3.46666e-08
-5.9876e-07 1.65159e-07 -4.61088e-08
7.56792e-07 1.24745e-07 -1.17702e-09
-3.74976e-07 4.91164e-08 -7.09737e-09
6.94122e-07 1.52122e-07 -3.22684e-08
6.93841e-07 1.33908e-07 9.02908e-09
3.58655e-07 -6.24505e-08 3.51449e-08
2.61786e-07 -9.26226e-08 3.97214e-08
3.51559e-07 -8.75033e-08 4.45623e-08
-8.31867e-09 2.57008e-07 3.6498e-09
-5.28398e-08 2.20306e-07 9.54436e-09
-4.68132e-07 2.56577e-07 -1.0298e-07
-4.25935e-07 2.97411e-07 -1.01779e-07
-2.41486e-07 1.29871e-07 -4.76122e-08
-3.80307e-07 2.89491e-07 -7.62306e-08
-6.93517e-07 9.76795e-08 -1.3572e-07
-6.91938e-07 9.52587e-08 -1.45841e-07
1.35559e-07 -1.82223e-07 4.08087e-08
-6.85214e-07 1.17988e-07 -1.4425e-07
-7.16705e-07 -5.55684e-08 -1.41427e-07
-7.10644e-07 -5.69333e-08 -1.30501e-07
8.22436e-07 1.48796e-07 1.69775e-07
8.13602e-07 1.52679e-07 1.40504e-07
3.7925e-07 9.54561e-08 8.45131e-08
3.88692e-07 7.42649e-08 7.48652e-08
4.47628e-07 5.34616e-08 6.72404e-08
5.4978e-07 5.82201e-08 -3.78454e-08
6.55014e-07 -1.58682e-07 1.73927e-07
5.82867e-07 4.51455e-08 -4.13083e-08
-5.80184e-07 1.47899e-07 -1.57234e-08
5.50332e-07 6.22676e-08 -5.03327e-08
1.71734e-07 1.582e-07 6.4965e-08
1.84982e-07 1.35991e-07 6.29194e-08
-2.20273e-07 1.45365e-07 -3.66563e-08
5.84177e-07 -2.01977e-07 1.58405e-07
5.77523e-07 -2.20577e-07 1.64096e-07
-3.68513e-08 -9.04071e-08 5.41822e-09
-4.2846e-07 9.04874e-08 -9.03585e-08
-6.86896e-07 -8.51295e-08 -1.5803e-07
-4.31458e-07 9.35002e-08 -9.00465e-08
-1.96066e-07 -1.97734e-07 -2.76356e-08
8.18958e-08 -2.64464e-07 7.95848e-09
9.38973e-08 -3.13291e-07 1.07307e-08
6.64771e-08 -2.87332e-07 1.8926e-08
5.25557e-07 2.14101e-08 5.40299e-08
5.33098e-07 5.59448e-09 4.52391e-08
5.26013e-07 -4.03304e-09 3.79208e-08
-3.42625e-07 1.78141e-07 2.33856e-08
1.39302e-07 -2.48596e-07 4.96403e-08
1.47383e-07 -2.30642e-07 5.67592e-08
-3.43373e-07 1.64031e-07 1.11778e-08
-3.72678e-07 5.04703e-08 -2.4219e-09
2.23795e-07 -4.26891e-07 4.98091e-08
2.80675e-07 -3.76293e-07 4.20193e-08
-3.1368e-07 3.66158e-08 -6.72894e-09
-5.15381e-07 2.81637e-07 -1.20409e-07
-5.21605e-07 2.60648e-07 -1.25267e-07
-6.87774e-07 -6.58928e-08 -1.14864e-07
-6.91955e-07 -4.88847e-08 -1.10409e-07
-6.93293e-07 -5.30003e-08 -1.17935e-07
4.0831e-07 -1.14753e-07 4.87029e-08
3.9325e-07 -9.92358e-08 5.23064e-08
3.24697e-07 -1.0685e-07 3.43573e-08
-5.50911e-07 -1.80576e-07 -1.09831e-07
-5.47314e-07 -1.84968e-07 -1.00954e-07
7.19137e-07 -1.13459e-08 3.03392e-08
-5.62017e-07 -2.67954e-07 -1.2827e-07
-6.13983e-07 -2.31609e-07 -1.4138e-07
-5.78886e-07 -2.46511e-07 -1.30425e-07
-4.48115e-07 -6.0163e-08 -9.89003e-08
-4.19619e-07 -7.9295e-08 -7.87492e-08
7.72084e-07 7.26382e-08 -7.64295e-08
6.20267e-07 8.20407e-08 -6.77135e-08
6.8778e-07 5.735e-08 -4.86133e-08
5.79147e-07 -1.92629e-07 1.64037e-07
6.14312e-07 -1.60645e-07 1.47298e-07
6.1277e-07 -1.61663e-07 1.48418e-07
4.7233e-07 2.89646e-08 -1.7498e-08
4.77104e-07 2.1461e-08 -1.71437e-08
1.06571e-07 2.51818e-07 -5.93778e-09
8.30865e-07 -3.4735e-08 -8.7477e-09
7.25647e-07 1.42752e-07 5.69262e-08
7.23525e-07 1.48347e-07 5.54166e-08
7.14228e-07 1.59227e-07 6.30199e-08
4.59788e-07 -3.13961e-07 1.57691e-07
4.50923e-07 -3.35492e-07 1.42842e-07
4.50895e-07 -3.23485e-07 1.37912e-07
7.6758e-07 1.48629e-07 7.86604e-08
-1.92163e-07 -1.85567e-07 -2.00873e-08
7.50512e-07 1.56381e-07 9.99067e-08
4.45287e-07 -1.79663e-07 1.13223e-07
4.48556e-07 -1.8255e-07 1.14222e-07
6.34671e-07 1.33997e-07 -4.85589e-08
7.63047e-07 -4.10287e-08 -2.32606e-08
6.33383e-07 1.59809e-07 -9.02964e-08
-6.57882e-09 2.08294e-07 3.41314e-08
-3.32521e-07 3.32278e-07 4.99057e-08
5.04795e-07 3.03195e-07 1.37398e-07
-2.77772e-07 -4.75362e-07 -2.90181e-08
-1.38826e-07 -5.14522e-07 1.8088e-09
-4.76105e-07 -1.53559e-09 -2.40128e-08
-1.85509e-07 -5.15943e-07 -1.93449e-08
-7.13374e-07 -5.93175e-08 -1.52526e-07
-7.15939e-07 -5.33793e-08 -1.48764e-07
-7.15442e-07 -3.80993e-08 -1.53264e-07
-6.03806e-07 1.87526e-07 -4.56094e-08
-2.97128e-07 3.14417e-07 -4.62683e-08
-2.11567e-07 3.25875e-07 -2.77096e-08
-5.91634e-07 1.98561e-07 -6.64213e-08
7.26311e-08 -3.52135e-07 5.16797e-08
-3.80783e-07 2.94259e-07 2.97961e-08
-5.99104e-07 -1.70573e-07 -1.21183e-07
-2.80063e-07 2.71421e-07 -4.41927e-08
-5.74665e-07 -1.96862e-07 -1.17688e-07
-5.79351e-07 -1.93665e-07 -1.25864e-07
4.5976e-07 -2.93842e-08 1.99788e-08
5.98706e-07 -3.19079e-08 3.48386e-08
5.99526e-07 -3.17266e-08 2.39535e-08
4.4694e-07 -1.44331e-08 1.04697e-08
-1.82992e-07 7.03968e-08 -3.28684e-08
4.46109e-07 -5.7318e-08 3.692e-08
-5.11711e-07 -3.23783e-07 -1.21292e-07
-1.05922e-07 2.36531e-08 -1.61431e-08
-6.29345e-07 -2.48435e-08 -1.45284e-07
-6.26924e-07 -3.89378e-08 -1.46443e-07
-4.41511e-07 -3.62888e-07 -1.05344e-07
-5.00231e-07 -3.39436e-07 -1.07042e-07
1.84118e-07 3.58239e-07 2.27493e-08
1.82476e-07 3.62727e-07 1.97576e-08
-5.43597e-07 2.67955e-07 -6.00778e-08
-5.50536e-07 2.59172e-07 -8.29314e-08
-5.18028e-07 2.94213e-07 -7.86208e-08
7.69852e-07 9.20953e-08 -6.90226e-08
6.0721e-07 1.23705e-07 -7.29292e-08
6.31541e-07 1.04628e-07 -7.72341e-08
6.10752e-07 1.24049e-07 -8.05498e-08
-6.70204e-07 8.45826e-08 -1.45503e-07
-6.40997e-07 1.08388e-07 -1.40959e-07
-6.72676e-07 9.0495e-08 -1.39609e-07
-1.2893e-07 2.50621e-07 2.07634e-08
-6.14909e-07 1.38296e-07 -4.37344e-08
-1.92369e-07 2.09334e-07 1.47615e-08
-1.33399e-07 1.2809e-07 -1.85999e-08
4.78044e-07 1.87261e-07 1.84972e-07
-4.20911e-07 1.13447e-07 -8.89186e-08
-4.23294e-07 1.11976e-07 -8.63098e-08
-7.0598e-07 9.40605e-10 -9.45328e-08
8.366e-07 1.20979e-07 1.06818e-07
-7.07855e-07 1.04578e-08 -9.99203e-08
3.36206e-07 2.232e-07 1.50747e-07
4.76119e-07 1.88911e-07 1.69887e-07
8.40307e-07 2.55861e-08 -6.74507e-08
7.98074e-07 -5.26878e-09 -9.83006e-09
4.30221e-07 2.19464e-07 1.73055e-07
-6.16817e-07 1.78715e-07 -7.04902e-08
-6.31117e-07 1.87056e-07 -7.98967e-08
-6.08743e-07 2.05914e-07 -9.83049e-08
-6.55175e-07 1.57687e-07 -1.45144e-07
-6.39058e-07 -1.0346e-08 -1.42299e-07
-6.28881e-07 2.17867e-08 -1.50935e-07
-6.48763e-07 -6.71557e-09 -1.51534e-07
-6.53341e-07 2.18566e-09 -1.45148e-07
8.25753e-07 1.1249e-07 -1.10955e-08
7.70496e-07 1.1143e-07 -3.56553e-08
5.93187e-07 -2.08318e-07 1.7448e-07
5.67268e-07 -2.23071e-07 1.74828e-07
8.27859e-07 1.18402e-07 -5.05293e-08
6.02796e-07 4.37696e-08 8.80563e-08
2.34723e-07 2.34254e-07 -2.50451e-08
2.34465e-07 2.27428e-07 -6.24835e-09
6.81522e-07 4.12672e-08 1.03489e-07
7.30768e-07 1.04153e-08 6.5222e-08
-3.23144e-07 3.42882e-07 2.8361e-08
5.68815e-07 3.14955e-07 1.12236e-07
2.19666e-07 4.90924e-07 6.55538e-08
4.69874e-07 3.65318e-07 1.31278e-07
3.45731e-07 1.98052e-07 1.45792e-07
3.20206e-07 1.72182e-07 1.13974e-07
5.7801e-07 -1.85122e-07 1.59685e-07
5.44717e-07 -2.12136e-07 1.69936e-07
-9.03094e-09 -4.59279e-07 4.25838e-08
1.10875e-08 -4.84644e-07 5.07271e-08
-2.75884e-08 -4.71808e-07 1.76316e-08
2.62657e-07 4.92955e-07 8.25144e-08
3.45635e-07 4.51043e-07 7.73923e-08
3.46436e-07 2.57434e-08 4.98017e-08
-4.61476e-07 2.8312e-08 -1.34526e-08
3.95571e-07 -1.5852e-08 3.16423e-08
-5.48012e-07 -1.3469e-07 -8.67792e-08
-5.55732e-07 -1.21488e-07 -9.01435e-08
-3.95377e-07 2.05574e-08 -1.43704e-08
1.0022e-07 -6.89474e-08 1.34712e-08
5.33969e-07 3.38266e-07 8.87566e-08
2.45608e-07 -2.79459e-07 2.46912e-08
2.39817e-07 -2.92493e-07 3.49069e-08
-4.51367e-07 -3.78435e-07 -6.65271e-08
2.47213e-07 2.78401e-07 1.23579e-07
2.73882e-07 2.74684e-07 1.42855e-07
-3.12135e-07 3.79473e-08 -3.32927e-09
2.53967e-07 2.9777e-07 1.32476e-07
-2.54274e-07 7.64557e-08 4.35454e-09
2.58834e-07 5.62299e-08 -1.93075e-08
5.696e-07 -3.57571e-08 2.67546e-08
5.57579e-07 -2.52271e-08 1.87482e-08
2.50136e-07 2.81304e-08 -7.38596e-09
2.38962e-07 7.3024e-08 -2.14181e-08
-5.17301e-07 1.19838e-07 -9.10228e-09
-4.99935e-07 1.42929e-07 4.53299e-09
3.57212e-07 -3.31093e-07 1.45066e-07
4.01207e-07 -2.92861e-07 1.4484e-07
3.57782e-07 -3.24347e-07 1.35995e-07
-5.84551e-07 1.63926e-07 -1.2322e-07
-5.57409e-07 1.92563e-07 -1.27293e-07
-5.17484e-07 1.92363e-07 -1.09094e-07
1.11941e-06 -2.3367e-08 4.94704e-08
1.15645e-06 -3.73511e-08 2.72749e-08
1.09949e-06 -1.22716e-08 4.36372e-08
5.24914e-07 2.51415e-08 5.4334e-08
4.49169e-07 4.69677e-08 6.80941e-08
3.17116e-07 -2.48451e-07 5.02671e-08
-6.86903e-07 -2.5901e-08 -1.01358e-07
-2.8429e-07 -4.22211e-07 -5.85077e-08
-6.95392e-07 -3.8296e-08 -1.12309e-07
-6.83683e-07 -3.44151e-08 -9.70367e-08
8.47167e-07 1.20663e-07 1.92349e-07
-2.19805e-07 -3.84109e-07 -4.78913e-08
-2.63063e-07 -3.4717e-07 -5.59611e-08
2.01854e-07 3.23538e-07 1.10774e-07
2.02608e-07 3.40557e-07 1.24897e-07
-2.68016e-07 -3.61673e-07 -5.86692e-08
-5.49182e-07 9.50955e-08 -9.26534e-09
-5.3565e-07 1.3706e-08 -3.11774e-08
-5.30654e-07 6.84037e-09 -2.98009e-08
-2.79489e-07 -1.71791e-07 -3.68404e-08
-2.08902e-07 -1.63425e-07 -2.48994e-08
-2.95827e-07 -1.51673e-07 -3.87838e-08
6.92691e-07 -1.12786e-07 1.33485e-07
7.67326e-07 1.63101e-07 1.18618e-07
-1.89002e-07 -2.27468e-08 -2.8958e-08
7.21557e-07 1.92626e-07 1.44319e-07
7.678e-07 1.7293e-07 1.13635e-07
-3.2915e-07 2.43645e-07 -6.30602e-08
4.15852e-07 3.61322e-07 1.2166e-07
-4.35058e-07 2.55093e-07 -9.62592e-08
6.88416e-07 9.07434e-08 1.6765e-07
7.12904e-07 6.85255e-08 1.6389e-07
-2.19429e-07 1.85611e-07 1.75906e-08
-3.0788e-07 1.54202e-07 1.34204e-08
-3.06739e-07 1.62972e-07 1.02523e-08
-6.80455e-07 9.1805e-09 -8.13322e-08
-6.77733e-07 -6.34134e-10 -7.76727e-08
-3.09518e-07 1.48762e-07 1.43918e-08
6.33046e-07 -1.77873e-07 1.77945e-07
5.49051e-07 -1.60441e-07 1.26837e-07
5.4645e-07 -1.59268e-07 1.25267e-07
6.61262e-07 -1.53435e-07 1.58964e-07
6.28975e-07 -1.70039e-07 1.63283e-07
4.63678e-07 -2.32466e-08 2.46549e-08
4.7062e-07 -1.17141e-08 4.44315e-08
4.59013e-07 -2.82551e-07 1.68288e-07
-2.65913e-07 2.9728e-08 -5.21694e-08
3.79795e-07 -3.2227e-07 1.55394e-07
4.37209e-07 -3.12947e-07 1.72312e-07
-3.13166e-07 -2.47048e-07 -3.0535e-08
-3.21623e-07 -2.65927e-07 -2.26943e-08
-3.36802e-07 -2.21342e-07 -3.5052e-08
4.94872e-07 2.74311e-07 2.04792e-07
4.91751e-07 2.56261e-07 1.75332e-07
4.76162e-07 2.74236e-07 1.70049e-07
4.32631e-07 3.39873e-07 1.45876e-07
4.02588e-07 1.75801e-07 -5.53782e-08
-5.17993e-07 2.70185e-07 -1.21844e-07
7.58909e-07 1.41806e-07 -4.85893e-08
7.63297e-07 1.76808e-07 1.38798e-07
3.9681e-07 1.56336e-07 -3.8853e-08
3.8979e-07 4.05433e-07 6.8674e-08
5.85335e-07 2.76173e-07 1.09334e-07
-4.01417e-07 1.05014e-07 6.22491e-09
-3.98597e-07 1.19865e-07 6.4743e-09
-5.03202e-07 2.24643e-07 -1.15857e-07
-4.98633e-07 2.35404e-07 -1.08531e-07
-4.98113e-07 2.4502e-07 -1.11896e-07
-6.26565e-07 2.06985e-07 -1.33441e-07
3.64577e-09 4.68406e-07 3.54486e-08
-6.24941e-07 1.49855e-07 -6.14636e-08
-2.22332e-08 4.52e-07 5.03576e-08
7.13585e-07 2.02246e-07 1.23685e-07
7.02856e-07 1.94787e-07 1.19525e-07
-6.72473e-07 4.50961e-08 -5.97232e-08
-8.89509e-08 2.12305e-07 1.14234e-08
-6.73015e-07 5.12025e-08 -6.47764e-08
-4.73478e-07 1.05756e-07 4.49414e-09
5.27261e-07 3.07418e-07 1.38825e-07
-3.06363e-07 -4.35654e-07 -1.52237e-08
-3.67954e-07 -3.92613e-07 -3.6545e-08
-4.03297e-07 -4.02428e-07 -4.74483e-08
-6.4469e-07 1.34229e-07 -1.43683e-07
-6.19016e-07 1.59701e-07 -1.3757e-07
-6.4721e-07 1.35777e-07 -1.33776e-07
-6.86408e-07 1.00857e-07 -7.38957e-08
-6.54778e-07 9.59236e-08 -4.44503e-08
-6.54109e-07 1.01165e-07 -5.20195e-08
3.64116e-07 4.02951e-07 1.1756e-07
-3.00813e-07 -3.27886e-07 -6.10773e-08
-3.01025e-07 -3.26616e-07 -6.96193e-08
7.33569e-07 1.83562e-07 1.16877e-07
2.49077e-07 -2.14329e-07 7.57638e-08
2.14559e-07 -2.44233e-07 7.31048e-08
7.00587e-07 2.06843e-07 1.10633e-07
7.17354e-07 1.89872e-07 9.45511e-08
2.02307e-08 4.37868e-07 3.31111e-08
-3.51567e-08 3.98929e-07 4.82512e-08
5.91501e-09 3.81369e-07 3.03831e-08
-4.31984e-07 1.85633e-07 -9.92168e-08