# vtk DataFile Version 2.0
S, Created by Mohamad Ibrahim Cheikh
ASCII
DATASET UNSTRUCTURED_GRID
POINTS 2818 double
-99.8217 -23.0231 -13.638
-103.04 -20.5214 -14.663
-58.8444 -30.2769 24.4002
-54.5492 -30.7943 24.9681
-8.4637 3.77208 -43.7379
-14.4942 36.6363 -23.834
-12.3374 -7.13695 43.2022
5.24453 34.7112 -26.9772
5.3837 37.0842 -23.6054
122.078 -7.85747 -7.04808
121.218 -5.47657 -10.3464
124.332 0.613195 -6.55945
122.466 -1.15828 -9.92254
-7.56012 37.1129 -23.487
-4.50728 38.0835 -21.9808
-12.219 12.4574 -41.9825
-6.17671 2.32692 -43.8852
-95.5772 10.434 26.6219
32.7867 -8.96864 41.5205
-93.8842 13.4903 25.9784
-79.1181 -13.949 31.2258
-75.2526 -14.3492 32.1991
-83.1197 26.4067 -19.82
-86.9394 24.6118 -20.1215
-25.7621 8.12294 42.2938
-68.5738 -11.6016 35.0098
-72.4498 -11.6071 34.0388
11.5955 6.57659 -43.3161
-66.9903 -11.9736 -35.2591
-63.7329 -10.179 -36.5389
-57.4335 -32.1575 -22.3169
-60.4589 -30.2063 -24.0012
-100.03 3.05074 26.489
-96.6635 2.52999 28.0291
-44.6495 -18.4828 36.7466
-41.6407 -20.0759 36.341
17.1048 -8.84169 -42.6849
-32.2893 -22.2179 36.259
-35.8091 -22.6826 35.56
8.60468 -15.7766 -40.9638
5.07734 -16.9194 -40.5781
-51.0309 -35.0917 19.6404
-47.1987 -34.5419 21.6822
-57.4265 33.9011 -19.5694
-60.8699 32.52 -20.6113
-71.5991 34.4238 11.1073
-74.8253 32.9861 12.7455
-84.2282 32.0382 6.402
-83.0162 32.935 2.74408
-78.5523 10.4041 -32.746
-75.8975 12.5002 -32.7795
-109.881 13.3871 16.6911
3.77533 6.97191 -43.424
-106.231 16.0462 17.2303
37.8319 -27.4044 -31.7769
40.0197 -25.2102 -33.232
-92.7532 24.8491 16.2859
-94.9409 22.8046 17.6746
-64.3896 -32.5372 19.2283
-66.4573 -33.5114 16.5004
-66.2869 -26.6224 -26.2544
-66.7145 -29.4528 -22.8827
-79.444 32.9332 -8.87139
-83.1231 31.4732 -9.97552
-12.8922 -17.3613 40.1775
-15.8613 -15.271 40.89
-66.6547 -34.8306 13.375
-64.19 13.6994 -35.2686
-64.6316 -36.2547 10.4963
-63.8066 -31.142 -21.627
-81.2127 -25.2882 -22.1137
-84.4642 -18.7431 -26.6693
22.6374 24.9454 -35.3693
25.3159 22.3878 -36.8283
-81.233 -20.0908 -26.9159
-65.24 -17.297 -33.4023
49.9341 -17.1198 -36.5738
46.5856 -15.304 -37.8957
80.0806 32.7042 -9.01651
83.2699 32.1753 -7.1996
-68.0428 -15.1682 -33.7505
-107.128 -5.54772 -22.3643
-106.374 -9.20239 -21.586
-89.4178 22.9424 20.7545
-86.6038 25.4423 19.2467
-82.5672 -22.6789 -24.2285
-77.4406 -25.9097 -23.0318
-69.9428 -1.02916 -36.5515
-98.8093 -0.109435 -27.2152
-67.0398 -5.84777 -36.7636
-68.7497 -21.7727 -29.72
-65.9389 -20.1962 -31.5562
-66.5884 -2.52008 -37.2396
-97.9665 26.1249 -8.85844
-94.6746 26.5466 -11.5715
28.937 -14.2982 40.3614
25.5593 -16.015 39.9942
-98.5556 -27.0205 -4.0862
0.861793 12.5637 -42.1671
0.361544 9.17062 -43.0335
-94.9772 -28.1476 -6.2695
-91.9854 -29.719 -4.10545
92.1594 10.5075 28.0312
88.5059 10.4979 29.4408
38.2079 33.8584 -24.7159
41.9193 33.1236 -24.9737
-104.664 -2.66945 -24.2428
-105.278 1.25981 -24.0305
-71.1488 30.9509 -18.9283
-68.7079 28.7338 -23.0739
-96.9426 25.113 12.4399
-100.193 23.1678 13.0472
20.9045 -10.3356 -42.1387
19.0583 -36.3679 23.8518
22.8939 -35.0285 25.3936
69.9693 -6.98315 -35.8867
73.4078 -7.09705 -35.0127
-42.1955 -2.18137 -41.3915
-46.2825 -1.32394 -40.89
-110.486 20.5987 -4.14304
-106.438 22.8713 -5.08643
-51.281 -36.8119 16.0912
-47.8627 -38.0171 14.4995
-112.012 17.6175 -9.46148
-108.461 19.5862 -10.5899
102.413 -21.9893 -12.9753
106.046 -19.8316 -12.8795
-67.5498 31.162 -20.1564
-122.921 8.02649 4.65805
-111.954 -11.0823 -16.6934
-122.106 10.2373 2.40352
58.0654 -22.4848 -31.9006
56.4654 -25.5731 -29.8608
-112.826 18.183 6.84603
-68.3302 16.9388 -32.8245
-109.867 20.3527 6.62845
-65.4389 -8.40694 36.6203
11.7616 12.9296 41.8556
8.19779 15.3725 41.1274
32.5939 39.3442 16.0615
-58.0974 -1.77137 38.9823
-57.8041 -6.26499 38.5703
-26.9222 -26.1467 -34.1118
-12.5015 -42.3852 10.9708
-9.44965 -42.9575 8.92864
-24.5643 -23.3747 -36.2733
-117.911 14.4646 4.96314
-124.695 4.43288 3.56235
-119.939 12.9153 2.82618
56.314 0.88934 39.3313
-19.1998 -30.9248 30.57
-7.89746 -18.8193 -39.6762
-12.7101 -15.4129 -40.9715
-14.4334 -27.6374 33.8625
-18.5297 10.8557 42.144
-22.989 10.751 41.9012
121.92 10.3189 3.10635
119.265 13.1201 4.73169
117.864 15.1672 2.27039
-31.9732 -33.4212 26.3412
-16.4518 0.0164113 43.6218
3.65561 -9.0725 -43.0355
1.30617 -31.8806 30.3219
-53.0717 39.8746 1.08673
-49.1292 40.4988 0.582105
-27.1392 -34.3042 25.866
16.9596 -39.8393 17.7092
12.3961 -39.8277 18.1917
9.64582 -38.6459 20.7629
-103.56 -24.418 5.1711
-107.07 -22.5816 4.74707
44.2805 28.4794 29.7467
41.9293 30.9959 27.5684
1.98749 38.4056 -21.4599
-56.9142 37.6845 -10.9224
-52.7082 38.4867 -10.7071
-87.5664 -3.01208 31.4348
-11.4715 -18.714 -39.6191
-88.6264 -7.1756 30.3787
-91.3322 -8.94663 28.8911
-36.3684 -15.756 -39.0617
-29.9941 -12.1571 -40.9641
-32.3903 -15.6976 -39.5113
-56.8187 21.5926 -32.7797
28.0041 -29.0864 31.5272
23.9656 -28.0767 32.8235
28.7117 4.87992 42.5589
74.7547 34.4988 -7.85229
72.1996 35.5501 -5.82983
-14.8999 -38.2445 21.1229
-11.7848 -37.068 23.3444
-53.5955 23.5897 -32.0601
-50.485 22.73 -33.2762
-118.151 -14.9671 1.70376
-120.765 -12.2623 -0.301442
-116.189 -16.804 -0.91585
-76.6421 26.5601 -22.6142
-72.7665 26.4148 -24.2898
-80.2325 24.5903 -23.3067
-41.7284 -12.4205 39.6049
-38.327 -12.2437 40.078
2.10862 -34.4476 -27.3645
9.63875 -33.3537 -28.4984
6.56127 -35.0192 -26.5402
51.9631 -31.8088 -24.3642
56.161 -31.5104 -23.5996
60.3752 -33.7834 -18.6656
61.5464 -34.9622 -15.8077
63.8132 -31.4998 -21.1
67.5017 -31.1833 -20.1433
108.512 3.30958 21.9875
104.744 4.7573 23.8778
59.288 -29.5768 -25.1169
0.741557 43.0502 -9.08909
-0.789001 43.7165 -4.97929
-2.48009 43.245 -8.0697
-62.7191 -24.8663 -28.9148
-62.4176 -21.6948 -31.4381
-11.4522 39.9952 -17.8977
-83.1254 5.78073 32.5055
-11.7223 38.2835 -21.2967
49.7623 -5.71498 -40.0021
53.0331 -4.24641 -39.669
-8.33773 38.9535 -20.2513
-88.5233 -30.3323 7.51949
-82.0268 -31.9567 9.53979
-84.6874 -31.6864 7.34223
-38.0787 36.234 21.1087
-30.7629 -18.4713 38.4571
-41.1698 34.4519 23.2713
-44.9903 33.52 23.7612
10.2825 25.8725 35.4072
13.1512 20.5442 38.6363
13.9924 24.1745 36.4366
-77.8981 2.91513 34.4177
-76.2647 -0.389094 34.9822
-53.6769 -21.9371 -33.1966
-55.8726 -18.2739 -34.9266
14.3848 -11.4097 -42.1958
-53.3076 -15.0191 -36.9123
-30.3384 -40.0973 -14.6806
-26.1618 -40.1467 -15.5063
26.1845 10.4815 41.7396
-33.566 -38.8242 -17.0511
13.3793 -43.4884 4.779
10.3191 -43.169 7.70703
-36.8883 41.4783 -6.99687
-41.233 40.9842 -6.93836
4.95314 29.4043 -32.6862
8.47609 29.8628 -32.1779
10.1477 31.7869 -30.2157
-4.40614 32.9013 29.1741
54.2257 37.4299 13.2289
0.892947 35.1253 26.4974
-75.9207 -30.4303 17.4446
-1.16232 33.4494 28.5827
-2.05897 18.3243 -39.9963
1.21445 19.5582 -39.4119
7.93222 -8.49018 -43.0838
89.1994 30.9035 2.61746
92.1644 29.6786 3.90109
9.05524 2.01274 43.8396
17.1136 -23.9751 -36.4052
43.6805 -41.0007 -4.62042
12.8441 -24.8635 -36.0223
29.3984 -10.7615 41.405
109.361 1.42013 -21.6735
115.258 1.40098 -17.5394
112.272 -0.271439 -19.8162
15.932 33.7043 -27.7299
19.5973 34.1365 -26.9013
22.536 32.0094 -29.1413
-63.6669 -15.8872 34.4576
40.7252 9.06933 40.6287
37.5757 11.1479 40.4828
-67.4328 -16.0713 33.4814
-26.8904 -17.8429 39.1037
124.041 4.59399 -5.58098
121.787 7.76081 -7.73801
-25.4328 -14.6535 40.5226
-75.0918 -24.0927 -25.7911
-71.7489 -25.9788 -25.1166
5.67988 -41.2956 15.0574
-1.30132 -41.4566 14.7358
2.31488 -42.0693 12.8653
80.1499 21.6599 -26.0836
76.7818 19.935 -28.58
76.9377 16.8039 -30.4781
37.6321 -32.7845 26.2259
41.5901 -32.1276 26.3067
17.6613 40.1787 -16.8369
74.457 -30.476 18.124
71.6982 -33.8975 12.5535
71.7326 -32.1146 16.5735
69.7547 -26.5553 -25.2012
72.8525 -24.3218 -26.3562
-2.99252 39.0476 20.253
-5.47453 35.4773 25.9556
-2.8764 37.2257 23.4358
44.1356 33.0466 24.6055
41.8388 35.2636 21.867
38.1082 34.7003 23.5391
-0.141468 30.5635 31.6524
2.81401 31.5738 30.6289
-80.0309 8.5214 32.8516
21.9288 41.8974 -11.0334
-57.472 35.4735 16.5299
-59.2984 36.4339 13.3443
-63.8307 35.2474 13.957
105.692 21.5797 10.1328
108.898 19.6479 9.90349
110.608 19.6063 7.33249
-56.6532 38.6888 6.79892
25.8116 -9.15172 42.0794
-60.4164 38.202 5.45184
31.8574 27.4346 32.5436
35.9447 27.8514 31.6562
-28.9168 33.1107 27.1534
21.5206 40.6277 -15.1225
-25.2914 33.9639 26.5356
-12.2398 8.99428 -42.8575
-113.107 -12.1647 14.8913
-80.4303 28.6396 -17.9935
119.655 -11.7592 6.69767
120.817 -6.81288 10.1239
-18.0829 -25.2429 35.4791
121.763 -8.56872 6.88369
22.9442 -43.2614 -0.028495
19.1281 -43.485 0.507708
16.6825 -43.5441 -2.41544
-89.501 -30.7409 3.2057
-50.3331 -8.36375 -39.4446
-49.6535 -4.24385 -40.2013
-92.4866 -29.8019 0.779239
71.5808 4.85852 35.8481
-111.247 -15.3624 13.5941
40.7126 -35.7585 21.3167
-31.2859 -8.02652 -41.8538
48.2351 -33.6748 22.7411
44.0402 -34.109 23.1325
8.15811 30.6667 31.423
31.2523 34.6993 -24.7463
27.6927 34.5825 -25.4197
4.98126 29.5213 32.58
30.9955 -9.3776 -41.5985
11.2257 28.9499 32.901
94.1313 -25.8414 13.5426
39.0427 -6.77458 -41.2732
40.5483 -37.5648 -17.9887
43.9797 -38.038 -15.8841
99.2267 -21.8728 15.8788
97.7799 -24.331 13.1704
-107.209 9.26333 21.0479
-110.903 9.64978 18.3592
-104.675 -23.7254 -5.62546
-101.341 -25.0554 -7.13272
-107.167 -21.6038 -7.94956
-9.47612 37.5824 22.64
-18.4763 33.9859 27.1875
-11.6126 35.5006 25.6748
-14.7292 33.8357 27.6512
-13.5618 -39.2738 -19.2627
-18.037 -37.1378 -22.7365
-17.3627 -39.0236 -19.3971
-78.9642 -4.15263 33.9906
-75.6503 -33.1551 11.6651
-77.7705 -7.77814 33.6899
9.57035 -4.59861 -43.6307
-10.043 35.0769 -26.3299
10.1034 -22.6527 -37.5547
6.48035 -23.3434 -37.2283
-19.577 -41.781 11.9761
-41.3998 41.4554 2.75888
-23.2865 -41.9492 10.482
-17.514 29.3235 -32.227
-14.1359 34.1889 -27.2517
10.0594 41.2603 14.8728
12.9635 40.1063 17.5189
-16.6619 32.1836 -29.4317
-86.004 -32.0869 0.922961
-84.914 -32.3255 -2.8798
-87.6132 -30.9102 -6.38561
-47.3899 -36.319 -18.4926
32.9357 -38.2846 -18.3706
23.8868 -37.9707 -20.6002
29.0386 -39.4845 -16.5451
25.1534 -39.3468 -17.6172
-30.4302 38.6709 18.0883
-25.6696 37.492 21.2055
86.0648 31.6079 5.48436
[...]
POINT_DATA 2818
VECTORS F double
-9.6594e-08 5.94926e-08 -1.38739e-08
-9.23116e-08 6.79599e-08 -1.56931e-08
-1.13837e-07 4.96455e-08 2.79912e-08
-1.12326e-07 4.90336e-08 3.04304e-08
-2.85439e-08 5.10808e-08 5.0816e-09
1.75847e-07 4.38716e-08 5.43445e-08
-4.11763e-08 5.21145e-08 7.16966e-09
1.28436e-07 4.08613e-08 5.56326e-08
1.80345e-07 3.48249e-08 5.97459e-08
-3.72128e-08 -7.10515e-08 2.94989e-10
-2.65259e-08 -6.82043e-08 -1.94825e-09
1.0585e-09 -7.38764e-08 -4.45386e-09
-7.31057e-09 -7.23257e-08 -2.60589e-09
1.70983e-07 3.77858e-08 5.2969e-08
1.70951e-07 3.63416e-08 5.86731e-08
1.40284e-08 6.36993e-08 1.84015e-08
-3.32563e-08 4.27167e-08 2.83796e-09
6.2639e-08 8.51759e-08 -5.85048e-09
-4.89221e-08 -1.711e-08 1.03381e-09
8.1896e-08 7.69901e-08 -3.74468e-09
-4.88058e-08 8.39705e-08 2.23709e-08
-4.70364e-08 8.49581e-08 2.44021e-08
1.26506e-07 6.58499e-08 2.27803e-08
1.2298e-07 6.77729e-08 1.78421e-08
3.50895e-08 7.74372e-08 -1.22557e-08
-3.69965e-08 8.92859e-08 2.07159e-08
-3.97363e-08 8.65094e-08 1.91447e-08
-1.79553e-08 1.30047e-08 1.38598e-09
-5.04888e-08 7.46254e-08 -1.35978e-08
-5.01909e-08 7.96371e-08 -1.1467e-08
-1.22667e-07 3.96877e-08 -1.85381e-08
-1.18453e-07 4.67341e-08 -2.22853e-08
2.98095e-08 8.73583e-08 3.72088e-09
3.12325e-08 8.98575e-08 5.07642e-09
-7.64542e-08 7.12619e-08 2.44698e-08
-7.83883e-08 6.37779e-08 2.42362e-08
-6.65519e-08 -4.40606e-10 -3.17385e-09
-8.96639e-08 5.60571e-08 2.45736e-08
-9.13653e-08 5.4624e-08 2.35787e-08
-8.66546e-08 9.61735e-09 -5.93251e-09
-8.89636e-08 1.16432e-08 -6.21757e-09
-1.30746e-07 3.77722e-08 2.58968e-08
-1.29891e-07 3.93764e-08 2.81132e-08
1.62762e-07 4.5868e-08 2.09833e-08
1.58132e-07 5.01519e-08 2.19535e-08
1.74049e-07 4.50378e-08 -2.22079e-09
1.6684e-07 4.87804e-08 -6.32918e-09
1.62193e-07 5.23605e-08 -7.79171e-10
1.67103e-07 5.16327e-08 -7.77193e-10
4.88605e-08 8.46705e-08 1.25517e-08
5.60503e-08 7.73719e-08 1.36161e-08
8.82419e-08 8.69926e-08 1.34922e-09
-1.68422e-08 2.76029e-08 4.25249e-09
9.66366e-08 8.01617e-08 -1.70811e-09
-1.02246e-07 -1.6242e-08 -8.96283e-10
-9.46491e-08 -2.04247e-08 1.53955e-09
1.34919e-07 6.4613e-08 -4.51078e-09
1.25052e-07 6.98626e-08 -7.89932e-09
-1.21498e-07 4.54083e-08 2.70259e-08
-1.21871e-07 4.1943e-08 2.50891e-08
-1.00544e-07 5.17544e-08 -2.14007e-08
-1.15591e-07 4.9162e-08 -2.20178e-08
1.6237e-07 4.95019e-08 5.74637e-09
1.56026e-07 5.37963e-08 1.05551e-08
-7.58953e-08 3.96954e-08 1.41714e-08
-7.06266e-08 4.90733e-08 1.49731e-08
-1.29365e-07 3.92734e-08 2.33443e-08
6.15724e-08 8.09086e-08 1.77072e-08
-1.36819e-07 3.47228e-08 1.67902e-08
-1.18026e-07 4.29603e-08 -1.92292e-08
-1.01093e-07 5.85607e-08 -2.15132e-08
-8.00362e-08 7.14778e-08 -1.92003e-08
5.16525e-08 -1.00705e-09 3.33716e-09
4.12126e-08 -1.01005e-08 -2.67176e-09
-8.00075e-08 6.81548e-08 -2.13099e-08
-6.74565e-08 6.68365e-08 -1.848e-08
-7.04358e-08 -2.9321e-08 1.95112e-09
-7.07762e-08 -2.84648e-08 8.43188e-10
9.59658e-08 -3.27508e-08 -1.44415e-08
9.39834e-08 -3.17497e-08 -8.8087e-09
-6.38186e-08 7.44152e-08 -1.76917e-08
-2.3175e-08 9.46e-08 -9.87566e-09
-4.39488e-08 8.75609e-08 -1.08129e-08
1.24842e-07 6.82339e-08 -9.57559e-09
1.36369e-07 6.1511e-08 -6.18646e-09
-8.88057e-08 6.59513e-08 -2.46813e-08
-9.94743e-08 5.75892e-08 -2.38366e-08
-1.09228e-08 8.8518e-08 6.65076e-11
-8.38494e-10 9.85731e-08 -2.3797e-11
-3.21138e-08 8.45717e-08 -6.2828e-09
-8.32534e-08 6.13083e-08 -2.13357e-08
-8.29195e-08 6.63374e-08 -2.12435e-08
-1.10502e-08 8.48747e-08 -3.32455e-09
1.32994e-07 6.49004e-08 1.13299e-08
1.35119e-07 6.38629e-08 1.11623e-08
-6.43581e-08 -1.25339e-08 1.20894e-09
-6.79897e-08 -8.36643e-09 1.96957e-09
-1.13546e-07 5.06257e-08 5.22876e-10
5.09292e-09 3.74465e-08 1.11699e-08
-1.03686e-08 3.93052e-08 8.36538e-09
-1.15659e-07 4.93475e-08 -7.03815e-09
-1.20203e-07 4.53127e-08 1.71709e-09
2.31777e-08 -5.02548e-08 9.50866e-09
2.22352e-08 -5.3951e-08 1.10539e-08
1.01889e-07 -2.87765e-08 -2.01372e-08
1.01791e-07 -3.14437e-08 -2.07865e-08
-1.02704e-08 9.19389e-08 -4.69529e-09
1.07618e-08 9.72154e-08 -6.75935e-10
1.45437e-07 5.09604e-08 1.6399e-08
1.31601e-07 5.76561e-08 2.38217e-08
1.35355e-07 6.51468e-08 -2.37398e-09
1.30396e-07 6.99882e-08 -1.68171e-09
-6.7163e-08 -4.70826e-09 -2.92441e-09
-1.23809e-07 -4.64289e-09 5.03269e-09
-1.20752e-07 -7.09433e-09 3.54243e-09
-3.80616e-08 -4.4555e-08 -4.1568e-10
-3.66496e-08 -4.0941e-08 -1.10886e-09
-2.10661e-08 7.88278e-08 -1.52507e-09
-2.25985e-08 7.93649e-08 5.61931e-10
1.19311e-07 7.97897e-08 7.15757e-09
1.25862e-07 7.42277e-08 1.131e-08
-1.37664e-07 3.47575e-08 2.5802e-08
-1.40327e-07 2.96294e-08 2.09753e-08
1.0238e-07 8.41956e-08 8.38099e-09
1.08498e-07 8.02559e-08 1.23867e-08
-7.75717e-08 -4.55027e-08 2.15298e-09
-7.37925e-08 -4.92127e-08 1.38926e-09
1.49008e-07 5.38979e-08 2.21889e-08
5.82809e-08 1.06689e-07 4.4592e-09
-5.59348e-08 8.62855e-08 -1.13559e-08
7.33848e-08 1.05747e-07 6.04404e-09
-8.10238e-08 -2.91075e-08 2.46005e-09
-9.18685e-08 -2.60005e-08 9.98503e-10
1.11383e-07 8.34236e-08 3.16795e-09
8.00438e-08 7.28828e-08 1.72104e-08
1.18339e-07 7.71079e-08 3.38435e-09
-2.78626e-08 8.90376e-08 1.43448e-08
1.85852e-08 2.48931e-08 -8.3291e-09
3.03203e-08 4.16431e-08 -1.63051e-08
1.78969e-07 -1.73947e-08 -1.85486e-09
4.89469e-09 9.20083e-08 5.07401e-09
-1.88587e-08 8.78411e-08 1.08079e-08
-1.13883e-07 3.92831e-08 -1.91066e-08
-1.49699e-07 7.8299e-09 9.36589e-09
-1.50117e-07 5.38834e-09 6.47336e-09
-1.09716e-07 4.01516e-08 -1.67774e-08
9.51719e-08 9.3953e-08 3.00443e-09
3.49062e-08 1.15546e-07 5.81599e-09
8.67445e-08 9.74199e-08 5.51205e-09
-1.20016e-08 -4.42242e-08 3.10386e-09
-1.17291e-07 2.79667e-08 1.92724e-08
-9.5167e-08 2.79442e-08 -1.09354e-08
-8.53874e-08 3.683e-08 -1.0612e-08
-1.06916e-07 2.88528e-08 1.79693e-08
4.25159e-08 8.34346e-08 -1.92031e-08
4.08259e-08 7.42656e-08 -1.63127e-08
4.31115e-08 -6.25631e-08 6.69751e-10
4.93483e-08 -5.61651e-08 3.45175e-09
5.58181e-08 -5.3124e-08 1.258e-10
-1.28295e-07 3.36185e-08 2.35889e-08
-1.37371e-08 6.40528e-08 -6.58364e-10
-6.93544e-08 1.69366e-08 -4.29177e-09
-1.19219e-07 1.06794e-08 1.18572e-08
2.06671e-07 3.37434e-08 -2.42672e-09
2.10708e-07 3.1251e-08 3.03389e-09
-1.27398e-07 2.91269e-08 2.22638e-08
-1.34259e-07 -5.06162e-09 4.3549e-09
-1.35803e-07 -3.25686e-09 4.19945e-09
-1.3398e-07 -3.92581e-10 6.88977e-09
-1.01336e-07 5.54607e-08 1.34238e-08
-1.01437e-07 6.14297e-08 1.21098e-08
8.95326e-08 -3.84165e-08 2.04627e-08
1.01763e-07 -3.05328e-08 1.53799e-08
1.76927e-07 3.16352e-08 5.86218e-08
1.95324e-07 3.84649e-08 8.10292e-09
1.98139e-07 3.75203e-08 1.54498e-08
1.27784e-08 9.14267e-08 1.31186e-08
-9.62436e-08 3.10661e-08 -1.12622e-08
-1.30232e-08 9.43384e-08 1.76317e-08
-1.79423e-08 9.15559e-08 2.14077e-08
-8.37056e-08 5.82761e-08 -1.3965e-08
-7.56574e-08 5.94201e-08 -1.08521e-08
-8.21614e-08 5.93867e-08 -1.53479e-08
1.01392e-07 6.64713e-08 2.22689e-08
-1.01379e-07 -9.10052e-09 2.62894e-09
-1.01923e-07 -6.63972e-09 3.43147e-09
-6.91477e-09 -1.3458e-08 2.11428e-09
1.06118e-07 -3.1981e-08 -1.68215e-08
1.10447e-07 -2.92857e-08 -1.11182e-08
-1.3768e-07 1.4349e-08 1.40898e-08
-1.35493e-07 1.42647e-08 1.42765e-08
1.03534e-07 6.57858e-08 2.72144e-08
1.06572e-07 6.98326e-08 2.79053e-08
-8.05652e-08 7.91481e-08 1.12801e-08
-7.28355e-08 8.77042e-08 4.7611e-09
-8.79299e-08 7.42124e-08 4.08492e-09
1.23338e-07 6.11823e-08 2.06808e-08
1.26228e-07 6.3685e-08 2.29594e-08
1.19622e-07 6.35014e-08 1.65824e-08
-5.19066e-08 7.39846e-08 1.65067e-08
-5.0239e-08 7.60948e-08 1.73648e-08
-1.31457e-07 6.01401e-09 -8.8109e-09
-1.26465e-07 9.35022e-10 -6.33111e-09
-1.30596e-07 3.05474e-09 -7.98347e-09
-1.0586e-07 -2.26526e-08 1.93242e-09
-1.04343e-07 -2.25052e-08 -3.5157e-10
-1.0948e-07 -2.34964e-08 -8.28281e-10
-1.11603e-07 -2.44134e-08 7.96914e-10
-1.04067e-07 -2.69097e-08 1.64031e-09
-1.02686e-07 -2.72176e-08 5.32477e-12
8.20059e-09 -5.75792e-08 3.71221e-09
9.21296e-09 -5.49226e-08 5.99477e-09
-9.96956e-08 -2.5915e-08 1.70509e-09
2.80087e-07 4.10089e-09 2.22214e-08
2.82804e-07 2.05792e-09 1.25811e-08
2.7313e-07 4.40412e-09 1.33241e-08
-1.00681e-07 5.71499e-08 -2.2411e-08
-8.39163e-08 6.01507e-08 -2.11109e-08
2.21007e-07 3.00515e-08 4.98409e-08
4.81105e-08 9.74976e-08 -2.27596e-09
1.90976e-07 3.41951e-08 4.86003e-08
-4.12683e-08 -3.26174e-08 -1.62537e-09
-3.82914e-08 -3.63894e-08 -2.37206e-09
1.89239e-07 3.59736e-08 5.96564e-08
-1.18494e-07 4.61771e-08 1.54826e-08
-1.19485e-07 4.34881e-08 1.98955e-08
-1.17925e-07 4.20039e-08 1.47455e-08
2.09017e-07 3.97916e-08 -2.21411e-08
-7.71683e-08 5.635e-08 1.9508e-08
1.95401e-07 4.7856e-08 -2.85253e-08
1.94165e-07 4.53369e-08 -1.89465e-08
8.28703e-08 4.91758e-08 -3.88798e-08
4.95249e-08 3.37245e-08 -1.99963e-08
7.0057e-08 2.88193e-08 -2.24144e-08
2.9492e-08 1.01202e-07 -3.99348e-10
1.70385e-08 9.33794e-08 5.58644e-09
-9.33609e-08 5.6647e-08 -1.89518e-08
-7.77316e-08 6.79478e-08 -2.03269e-08
-7.30312e-08 4.1075e-09 -4.15886e-09
-6.96972e-08 6.87479e-08 -1.56493e-08
-1.48854e-07 1.74461e-08 -9.98939e-09
-1.47482e-07 1.64159e-08 -1.20378e-08
9.53914e-09 -9.35438e-09 1.61638e-09
-1.45634e-07 2.2035e-08 -1.50727e-08
-1.45419e-07 -5.38825e-09 8.11007e-10
-1.45131e-07 -3.7109e-09 3.00523e-09
2.25611e-07 2.71295e-08 1.52025e-08
2.21475e-07 2.87367e-08 8.60535e-09
8.14036e-08 4.22928e-08 3.95566e-08
8.38169e-08 3.54077e-08 3.55633e-08
9.83828e-08 2.70631e-08 3.25156e-08
1.84508e-07 4.25952e-08 -4.46253e-08
1.31663e-07 -2.842e-08 1.43375e-08
1.89502e-07 4.62417e-08 -6.20806e-08
-1.15546e-07 5.11112e-08 2.75921e-08
1.80211e-07 5.43573e-08 -6.27153e-08
3.12011e-08 4.64862e-08 2.11009e-08
3.23778e-08 4.60709e-08 2.29848e-08
-6.73753e-08 1.40967e-08 -4.29661e-09
8.97175e-08 -3.17623e-08 6.83375e-10
8.84547e-08 -3.41316e-08 3.81499e-09
-1.93593e-08 2.26051e-08 -5.48173e-10
-1.03937e-07 -2.34384e-09 -4.4383e-09
-1.30988e-07 -1.68768e-08 -1.84924e-09
-1.05703e-07 6.40263e-10 -5.0563e-09
-5.24517e-08 -1.30151e-08 1.17674e-09
-5.17082e-09 -5.9081e-08 -7.06585e-09
-2.15628e-09 -6.18394e-08 -6.67464e-09
-6.73745e-09 -6.08026e-08 -3.84087e-09
1.1488e-07 1.11181e-08 2.15943e-08
1.15437e-07 1.05851e-08 2.37277e-08
9.31847e-08 -2.63989e-09 5.92291e-09
-5.77295e-08 8.50941e-08 2.61748e-08
1.20495e-08 -3.10478e-08 5.45199e-09
1.35833e-08 -2.71483e-08 5.93237e-09
-5.90524e-08 7.98242e-08 2.37551e-08
-7.58639e-08 5.80478e-08 2.01e-08
2.02147e-08 -7.10746e-08 -3.50221e-09
2.9898e-08 -6.45851e-08 -7.16671e-09
-6.54669e-08 5.70849e-08 1.56122e-08
-9.62823e-08 6.09467e-08 -2.26124e-08
-9.83927e-08 5.44624e-08 -2.19203e-08
-1.41708e-07 -1.2243e-10 6.20894e-09
-1.44229e-07 3.34339e-09 7.84671e-09
-1.43962e-07 9.22815e-10 6.18923e-09
4.90343e-08 -4.67545e-08 -2.03783e-08
4.64572e-08 -4.82812e-08 -1.83965e-08
3.19732e-08 -5.05051e-08 -1.79641e-08
-1.07559e-07 -1.57764e-08 -8.25976e-10
-1.06074e-07 -1.68015e-08 1.24612e-11
2.0383e-07 7.02558e-10 2.78535e-08
-9.75453e-08 -3.19469e-08 -4.6574e-09
-1.0689e-07 -2.93155e-08 -4.41603e-09
-1.01249e-07 -2.94351e-08 -3.38509e-09
-9.04069e-08 -2.96881e-08 6.46358e-10
-8.51959e-08 -3.37627e-08 2.32488e-09
2.38351e-07 2.61921e-08 -4.61864e-08
1.99327e-07 4.13684e-08 -5.13969e-08
2.20242e-07 2.87114e-08 -4.2296e-08
1.20896e-07 -3.72807e-08 2.35204e-08
1.34696e-07 -3.01303e-08 1.70369e-08
1.35279e-07 -3.15234e-08 1.96573e-08
1.59789e-07 5.56496e-08 -5.36477e-08
1.52948e-07 6.45899e-08 -6.83029e-08
5.51382e-08 9.33235e-08 -7.76189e-09
2.67738e-07 -1.21772e-08 1.89076e-08
1.90943e-07 4.0969e-08 -6.64089e-09
1.87932e-07 4.01965e-08 -7.50402e-09
1.83081e-07 4.2749e-08 -5.44797e-09
6.41062e-08 -4.23249e-08 8.27379e-09
6.32273e-08 -4.63812e-08 6.89884e-09
6.26333e-08 -4.49202e-08 4.44018e-09
1.98135e-07 3.65303e-08 -5.74138e-09
-5.15666e-08 -8.79027e-09 1.96082e-09
1.92307e-07 3.71463e-08 6.22663e-10
8.32986e-08 -1.99554e-08 6.83946e-09
8.54306e-08 -2.43058e-08 9.50828e-09
1.87202e-07 4.55442e-08 -3.11287e-08
2.07483e-07 -5.09502e-09 2.24613e-08
1.87231e-07 5.05639e-08 -4.28707e-08
-7.44778e-09 6.33867e-08 1.3563e-08
-5.01256e-08 9.03397e-08 2.71861e-08
1.4086e-07 5.85775e-08 1.61484e-08
-5.06609e-08 -6.43516e-08 -2.17415e-09
-3.07602e-08 -6.81654e-08 -9.27899e-10
-1.01245e-07 3.81539e-08 2.08282e-08
-3.90262e-08 -7.05638e-08 -3.31798e-09
-1.42106e-07 -9.22701e-09 -4.37929e-10
-1.43501e-07 -7.73673e-09 -7.27514e-10
-1.45199e-07 -6.75645e-09 -9.75479e-10
-1.20216e-07 4.42224e-08 1.31483e-08
-4.84518e-08 7.77862e-08 -8.92424e-09
-2.57981e-08 7.73913e-08 -4.26875e-09
-1.17215e-07 4.46675e-08 5.05018e-09
1.50126e-09 -4.69811e-08 6.00047e-09
-6.42258e-08 7.97124e-08 2.5733e-08
-1.14868e-07 -1.61493e-08 -2.30937e-10
-5.62655e-08 6.80463e-08 -7.90041e-09
-1.08463e-07 -2.01239e-08 -1.63328e-09
-1.1022e-07 -1.93823e-08 -2.8886e-09
1.26744e-07 5.01235e-08 -5.29458e-08
1.1072e-07 -1.83856e-08 -8.66114e-09
1.08678e-07 -1.17564e-08 -1.49886e-09
1.25932e-07 5.22089e-08 -4.96646e-08
-6.22753e-08 -1.64367e-08 -1.97571e-09
1.15732e-07 3.98197e-08 -3.9872e-08
-8.50871e-08 -4.03759e-08 -4.63584e-09
-4.8815e-08 -2.8493e-08 -9.76631e-10
-1.25029e-07 -1.62373e-08 -5.97249e-10
-1.23238e-07 -1.69712e-08 -1.13438e-09
-7.36725e-08 -4.46088e-08 -5.08333e-09
-8.29255e-08 -4.25379e-08 -3.20905e-09
6.55033e-08 9.11266e-08 7.43063e-10
6.39862e-08 9.08343e-08 -4.20935e-10
-1.05453e-07 5.70365e-08 -3.18305e-10
-1.06138e-07 5.44794e-08 -6.7493e-09
-9.84617e-08 6.26783e-08 -7.82754e-09
2.27497e-07 2.45776e-08 -2.91408e-08
1.83225e-07 4.28896e-08 -3.83696e-08
1.94521e-07 3.66604e-08 -3.99189e-08
1.85228e-07 4.41661e-08 -4.19643e-08
-1.44843e-07 1.17654e-08 -1.15029e-08
-1.40644e-07 1.65708e-08 -1.34069e-08
-1.45942e-07 1.4068e-08 -1.23087e-08
1.93415e-09 9.78871e-08 1.2509e-08
-1.24757e-07 4.18976e-08 2.00283e-08
-1.73765e-08 8.90185e-08 1.56412e-08
-5.43969e-08 1.05398e-08 -2.57176e-09
1.4974e-07 4.96479e-08 5.91485e-08
-1.03187e-07 5.02154e-09 -6.4277e-09
-1.05124e-07 7.50088e-09 -6.94369e-09
-1.49323e-07 1.20504e-08 1.21557e-08
2.22252e-07 2.71189e-08 8.27608e-10
-1.50434e-07 1.28407e-08 1.04729e-08
1.09992e-07 6.03473e-08 4.75918e-08
1.50576e-07 4.59465e-08 4.80799e-08
2.72883e-07 7.30985e-09 -4.28754e-08
2.81334e-07 1.05196e-08 -4.95699e-08
1.38334e-07 5.38276e-08 4.92726e-08
-1.23555e-07 4.07247e-08 6.24238e-09
-1.28261e-07 4.10416e-08 2.33454e-09
-1.2112e-07 4.32072e-08 -5.69155e-09
-1.35835e-07 3.06925e-08 -1.76617e-08
-1.29595e-07 -1.32235e-08 -8.88118e-10
-1.3237e-07 -8.15635e-09 -3.75796e-09
-1.32875e-07 -1.08345e-08 -2.69599e-09
-1.34379e-07 -9.61441e-09 -2.01684e-09
2.25127e-07 3.34521e-08 -2.51485e-08
2.16251e-07 3.42661e-08 -2.85342e-08
9.36731e-08 -3.23522e-08 6.48351e-09
8.82955e-08 -3.22778e-08 7.63356e-09
2.28126e-07 3.27772e-08 -3.25754e-08
1.80109e-07 2.96121e-08 6.53345e-08
8.83626e-08 9.26696e-08 -2.16321e-08
8.69527e-08 9.04953e-08 -1.38911e-08
2.38856e-07 1.5429e-08 5.39974e-08
2.3244e-07 1.25937e-08 6.45735e-08
-4.97297e-08 9.18602e-08 2.05057e-08
1.45537e-07 6.39216e-08 8.00158e-09
7.74497e-08 9.81447e-08 7.23854e-09
1.25221e-07 7.18131e-08 1.46736e-08
1.13239e-07 6.33367e-08 5.54988e-08
9.51801e-08 5.34329e-08 4.06687e-08
1.18495e-07 -3.32036e-08 1.91759e-08
1.05069e-07 -3.87646e-08 2.39462e-08
-9.30178e-09 -5.71791e-08 3.79451e-09
-6.80692e-09 -6.21242e-08 3.82089e-09
-1.20206e-08 -6.04544e-08 3.4133e-10
8.69351e-08 9.96532e-08 1.0398e-08
1.00403e-07 9.1216e-08 7.69525e-09
4.31642e-08 -1.36588e-08 -4.30124e-09
-9.65684e-08 4.70419e-08 2.29437e-08
5.18414e-08 -2.1327e-08 -9.27275e-09
-1.13543e-07 -4.23955e-09 4.74867e-09
-1.16301e-07 -2.08182e-09 5.56951e-09
-8.42173e-08 4.74356e-08 1.90465e-08
-7.73035e-09 -4.69724e-08 -7.4618e-09
1.36298e-07 7.00598e-08 5.29478e-09
2.11667e-08 -5.98562e-08 -1.08884e-08
2.14811e-08 -5.92262e-08 -8.48324e-09
-7.52844e-08 -5.31847e-08 -1.72849e-09
8.81464e-08 6.55808e-08 3.21401e-08
9.58808e-08 6.89728e-08 4.11817e-08
-6.43856e-08 5.76461e-08 1.54055e-08
9.10314e-08 7.31445e-08 3.7432e-08
-4.69787e-08 6.76839e-08 1.35607e-08
8.44004e-08 7.30271e-08 -3.90848e-08
1.65484e-07 3.57049e-08 -5.55488e-08
1.66414e-07 3.73815e-08 -5.06452e-08
7.99617e-08 6.49413e-08 -3.16048e-08
8.29059e-08 7.45824e-08 -3.37852e-08
-1.01818e-07 5.40998e-08 2.8589e-08
-9.49914e-08 6.32978e-08 3.18096e-08
5.22869e-08 -4.88414e-08 1.69982e-08
6.27029e-08 -4.21921e-08 1.53165e-08
5.27209e-08 -4.59044e-08 1.4398e-08
-1.28621e-07 3.18272e-08 -1.76024e-08
-1.19969e-07 3.89422e-08 -2.02377e-08
-1.15422e-07 4.06707e-08 -1.82978e-08
3.45136e-07 -2.01623e-08 -5.86499e-09
3.70898e-07 -2.63944e-08 -4.4291e-09
3.29956e-07 -1.55524e-08 -3.43483e-09
1.29893e-07 2.3005e-08 3.92357e-08
9.88313e-08 2.00864e-08 2.66665e-08
3.4815e-08 -5.44331e-08 -9.43636e-09
-1.45186e-07 8.80578e-09 9.93255e-09
-5.03303e-08 -5.07036e-08 -3.28436e-09
-1.45614e-07 4.48755e-09 7.69759e-09
-1.43447e-07 7.73028e-09 1.04637e-08
2.44432e-07 1.75193e-08 2.44949e-08
-4.19593e-08 -4.54109e-08 -3.47992e-09
-4.88694e-08 -3.95445e-08 -2.71772e-09
8.19228e-08 7.30729e-08 2.62327e-08
8.22441e-08 7.90715e-08 3.21436e-08
-5.07477e-08 -4.31629e-08 -4.2616e-09
-1.1197e-07 5.42906e-08 3.11932e-08
-1.13146e-07 3.52603e-08 2.26678e-08
-1.11918e-07 3.6161e-08 2.2856e-08
-6.77041e-08 -5.12733e-09 2.68636e-09
-5.56017e-08 -3.98789e-09 2.5668e-09
-7.15168e-08 -1.20477e-09 3.70953e-09
1.3532e-07 -2.64305e-08 -7.32922e-09
2.00102e-07 3.52243e-08 3.06338e-09
-5.74432e-08 -3.64292e-08 1.72287e-09
1.92732e-07 3.81079e-08 9.18533e-09
2.03918e-07 3.53095e-08 1.71549e-09
-7.41522e-08 5.67005e-08 -1.13413e-08
1.16913e-07 6.93784e-08 1.43694e-08
-9.05445e-08 5.79914e-08 -1.80238e-08
2.14705e-07 1.86434e-08 4.9147e-08
2.29125e-07 1.08485e-08 4.44404e-08
-2.59987e-08 8.88523e-08 1.62926e-08
-5.11747e-08 8.40675e-08 2.02719e-08
-5.04114e-08 8.54712e-08 1.99273e-08
-1.4517e-07 1.81707e-08 1.59957e-08
-1.4375e-07 1.73171e-08 1.66222e-08
-5.17545e-08 7.93349e-08 2.21847e-08
1.33265e-07 -3.49967e-08 2.37224e-08
1.13791e-07 -2.47609e-08 1.14026e-08
1.11689e-07 -2.16951e-08 8.8548e-09
1.4728e-07 -2.97095e-08 1.53692e-08
1.28611e-07 -2.96195e-08 1.41727e-08
7.19751e-08 -1.57812e-08 -6.3368e-09
7.13224e-08 -2.18193e-08 -9.80741e-09
7.13941e-08 -3.9076e-08 1.50749e-08
-7.36805e-08 -2.44456e-08 5.85809e-10
5.54305e-08 -4.48554e-08 1.61604e-08
6.57339e-08 -4.49944e-08 1.81556e-08
-6.21603e-08 -5.07909e-08 1.36569e-09
-6.22683e-08 -5.122e-08 2.62169e-09
-6.56725e-08 -4.75179e-08 2.52426e-09
1.5884e-07 5.65857e-08 4.47475e-08
1.58622e-07 4.91361e-08 3.10559e-08
1.52507e-07 5.29327e-08 3.06914e-08
1.21511e-07 6.56202e-08 1.90101e-08
1.26952e-07 6.86154e-08 -3.42322e-08
-9.79056e-08 5.85861e-08 -2.28674e-08
2.10623e-07 4.20617e-08 -3.31289e-08
2.07926e-07 3.37374e-08 8.07292e-09
1.24672e-07 6.45474e-08 -2.96792e-08
1.05489e-07 8.60875e-08 5.73603e-09
1.51869e-07 5.49837e-08 4.77828e-09
-7.72485e-08 6.60536e-08 2.61866e-08
-7.59062e-08 7.25169e-08 2.55815e-08
-1.06591e-07 4.73333e-08 -1.95581e-08
-1.04095e-07 5.07274e-08 -1.87465e-08
-1.038e-07 5.51198e-08 -2.08662e-08
-1.25627e-07 4.25961e-08 -1.84038e-08
3.1425e-08 1.09934e-07 4.58654e-09
-1.26293e-07 3.93196e-08 1.2272e-08
2.4795e-08 1.07177e-07 9.68566e-09
1.88411e-07 4.02257e-08 5.59238e-09
1.83046e-07 4.00814e-08 3.35231e-09
-1.42947e-07 2.784e-08 2.16217e-08
-2.84928e-08 5.99165e-08 6.00908e-09
-1.42295e-07 2.61714e-08 1.93173e-08
-9.41793e-08 6.48237e-08 2.97751e-08
1.39561e-07 6.03146e-08 1.36667e-08
-5.76008e-08 -6.51902e-08 1.79791e-11
-6.52324e-08 -5.91057e-08 -1.04736e-09
-6.95187e-08 -5.84925e-08 -1.41417e-09
-1.38862e-07 2.4278e-08 -1.76813e-08
-1.32792e-07 3.04145e-08 -1.89032e-08
-1.40308e-07 2.55923e-08 -1.68195e-08
-1.44446e-07 2.98543e-08 1.47517e-08
-1.35905e-07 3.62069e-08 2.45971e-08
-1.34702e-07 3.303e-08 2.07173e-08
1.04892e-07 7.74988e-08 1.40027e-08
-5.79582e-08 -3.89036e-08 -3.76667e-09
-5.64721e-08 -3.77204e-08 -4.10074e-09
1.88746e-07 3.95131e-08 3.70489e-09
3.45961e-08 -2.65825e-08 7.63459e-09
2.66691e-08 -3.21689e-08 8.16371e-09
1.78553e-07 4.46911e-08 3.18223e-09
1.83623e-07 4.20778e-08 -6.20255e-10
3.35991e-08 1.06344e-07 4.99684e-09
1.84312e-08 1.00378e-07 1.11089e-08
2.70388e-08 9.9005e-08 6.05428e-09
-1.02838e-07 3.2579e-08 -1.40184e-08