# vtk DataFile Version 2.0
S, Created by Mohamad Ibrahim Cheikh
ASCII
DATASET UNSTRUCTURED_GRID
POINTS 2818 double
-100.347 -22.6957 -13.7143
-103.541 -20.1467 -14.7497
-59.4618 -29.9918 24.5685
-55.1578 -30.5106 25.152
-8.6083 4.0707 -43.7076
-13.4908 36.8725 -23.5402
-12.5465 -6.81276 43.2471
6.00509 34.9599 -26.6344
6.45964 37.2886 -23.2477
121.862 -8.26068 -7.04541
121.063 -5.86425 -10.3563
124.333 0.192248 -6.58436
122.419 -1.57055 -9.93665
-6.57458 37.3153 -23.2007
-3.52259 38.2792 -21.6607
-12.1146 12.8239 -41.8758
-6.34929 2.5773 -43.8682
-95.2169 10.9071 26.5904
32.514 -9.04935 41.5293
-93.4189 13.9174 25.9585
-79.3691 -13.4764 31.3551
-75.4932 -13.8702 32.3397
-82.4085 26.7681 -19.6983
-86.2486 24.984 -20.0266
-25.5233 8.57523 42.2221
-68.7566 -11.0965 35.1295
-72.6487 -11.119 34.1497
11.504 6.65914 -43.3065
-67.2539 -11.5591 -35.3359
-63.9946 -9.73583 -36.6036
-58.1056 -31.9379 -22.419
-61.1064 -29.9467 -24.1255
-99.8508 3.53685 26.5111
-96.4764 3.03006 28.0584
-45.053 -18.066 36.8933
-42.055 -19.7011 36.4874
16.7344 -8.83886 -42.7035
-32.771 -21.8829 36.4096
-36.3001 -22.3583 35.7041
8.12264 -15.7177 -40.9985
4.58243 -16.8498 -40.6142
-51.747 -34.8733 19.7994
-47.9104 -34.3123 21.8549
-56.512 34.1516 -19.4596
-59.9816 32.7938 -20.496
-70.6264 34.6736 11.0928
-73.8926 33.2565 12.7091
-83.3222 32.3282 6.39539
-82.0833 33.2207 2.73705
-78.2658 10.8688 -32.679
-75.5713 12.9242 -32.7072
-109.382 13.8683 16.699
3.69396 7.13758 -43.398
-105.687 16.4903 17.221
37.2564 -27.4955 -31.7814
39.4863 -25.3248 -33.223
-91.9975 25.2074 16.2602
-94.2391 23.1917 17.6306
-65.0508 -32.2791 19.3903
-67.1206 -33.2741 16.6512
-66.8321 -26.3359 -26.3738
-67.3449 -29.1802 -23.0054
-78.5366 33.2059 -8.84407
-82.2512 31.7692 -9.92196
-13.3026 -17.1129 40.2676
-16.2393 -14.9668 40.9843
-67.3612 -34.6091 13.5159
-63.8293 14.1431 -35.1734
-65.3811 -36.0595 10.6
-64.4511 -30.9048 -21.733
-81.7613 -24.9644 -22.2338
-84.895 -18.3474 -26.7768
22.937 24.9501 -35.3424
25.553 22.3401 -36.8372
-81.6632 -19.7133 -27.0354
-65.5986 -16.9259 -33.5063
49.5365 -17.285 -36.5623
46.1866 -15.4635 -37.8908
80.6278 32.5154 -9.1021
83.8056 31.9924 -7.2532
-68.381 -14.7546 -33.85
-107.244 -5.02558 -22.4194
-106.606 -8.71824 -21.6468
-88.7163 23.3202 20.7019
-85.8394 25.7835 19.2119
-83.0466 -22.3138 -24.3664
-77.9796 -25.5913 -23.1649
-69.985 -0.538333 -36.5521
-98.7997 0.433967 -27.2162
-67.2002 -5.37804 -36.7994
-69.1972 -21.4326 -29.8398
-66.3844 -19.8271 -31.6756
-66.6312 -2.04994 -37.2591
-97.2227 26.4827 -8.79895
-93.9191 26.898 -11.5136
28.5773 -14.3528 40.3734
25.1791 -16.0463 40.0112
-99.1758 -26.7422 -4.08036
0.909134 12.7858 -42.1001
0.319441 9.40483 -42.983
-95.6088 -27.8764 -6.30612
-92.6424 -29.47 -4.09218
92.2906 10.2247 28.0829
88.6317 10.1945 29.501
38.7899 33.6948 -24.8283
42.5006 32.9447 -25.0898
-104.709 -2.16147 -24.2696
-105.206 1.79581 -24.0349
-70.3319 31.23 -18.8434
-67.966 29.0492 -22.9476
-96.1852 25.474 12.4257
-99.4626 23.5551 13.0374
20.5299 -10.3586 -42.1556
18.3641 -36.3866 23.8899
22.2165 -35.0601 25.4236
69.7536 -7.23655 -35.8879
73.2 -7.33035 -35.0179
-42.2909 -1.73872 -41.4006
-46.3873 -0.880601 -40.8874
-109.818 21.039 -4.1051
-105.734 23.2809 -5.02627
-52.0371 -36.6116 16.2502
-48.6346 -37.8465 14.6305
-111.437 18.0814 -9.4171
-107.852 20.0282 -10.5241
101.971 -22.2477 -12.9612
105.625 -20.1108 -12.8701
-66.7129 31.4566 -20.0397
-122.587 8.61607 4.6822
-112.254 -10.6048 -16.757
-121.689 10.8209 2.4365
57.6072 -22.6496 -31.8857
55.9463 -25.72 -29.8543
-112.202 18.644 6.86285
-67.8706 17.3374 -32.733
-109.204 20.7792 6.64622
-65.5687 -7.90392 36.7038
11.8793 13.1042 41.7972
8.39025 15.6487 41.0183
33.6337 39.2515 16.0258
-58.0429 -1.2517 39.0124
-57.8809 -5.76705 38.6338
-27.5508 -25.9223 -34.2214
-13.3365 -42.3372 11.0358
-10.2883 -42.9241 8.97562
-25.1708 -23.1441 -36.3701
-117.375 14.9834 4.9791
-124.488 5.07229 3.59459
-119.449 13.4532 2.85583
56.2475 0.648288 39.3476
-19.8461 -30.7526 30.6929
-8.42405 -18.6568 -39.7396
-13.1796 -15.1999 -41.0329
-15.0217 -27.4572 33.9776
-18.2473 11.3532 42.0278
-22.7159 11.1835 41.8061
122.162 9.96153 3.10892
119.543 12.7995 4.74981
118.18 14.8637 2.2695
-32.6796 -33.2201 26.4891
-16.4986 0.408333 43.6177
3.2726 -8.97058 -43.0606
0.642188 -31.8061 30.4027
-51.916 40.0609 1.06943
-47.9504 40.6712 0.594727
-27.8405 -34.1288 26.0063
16.2065 -39.8625 17.7434
11.6343 -39.8402 18.226
8.89585 -38.6408 20.8134
-104.112 -24.1118 5.25053
-107.623 -22.242 4.81877
44.7949 28.2681 29.8537
42.5159 30.8292 27.6452
3.0135 38.5714 -21.1456
-55.8219 37.8951 -10.8837
-51.5993 38.6918 -10.629
-87.4768 -2.50142 31.51
-12.0042 -18.5337 -39.6845
-88.679 -6.64765 30.4798
-91.4137 -8.43434 29.0134
-36.823 -15.4254 -39.1414
-30.404 -11.8171 -41.0266
-32.8361 -15.3587 -39.5993
-56.238 21.9551 -32.6613
27.4351 -29.1275 31.5506
23.3944 -28.1017 32.8525
28.6768 4.82329 42.5682
75.3601 34.3142 -7.952
72.8298 35.3811 -5.89763
-15.6649 -38.1557 21.2155
-12.5389 -36.9777 23.4393
-53.0013 23.9476 -31.9153
-49.873 23.1112 -33.1262
-118.59 -14.5279 1.76959
-121.161 -11.7749 -0.27215
-116.668 -16.3933 -0.890188
-75.9469 26.8953 -22.5049
-72.0549 26.7634 -24.1676
-79.5592 24.9387 -23.2189
-41.9903 -11.9886 39.704
-38.5795 -11.7963 40.1824
1.37207 -34.4125 -27.4144
8.92926 -33.3471 -28.5343
5.82939 -35.0015 -26.5845
51.3647 -31.937 -24.3519
55.5712 -31.638 -23.5999
59.7557 -33.9165 -18.6682
60.9145 -35.1005 -15.8009
63.2239 -31.6522 -21.0891
66.9201 -31.3377 -20.1413
108.557 2.98377 22.0071
104.795 4.44766 23.9102
58.7239 -29.7234 -25.1061
2.32036 43.0655 -8.9836
0.801521 43.7229 -4.92236
-0.940162 43.2633 -8.01098
-63.2654 -24.5483 -29.0405
-62.8687 -21.3607 -31.5565
-10.1987 40.1538 -17.6333
-82.8405 6.32408 32.4934
-10.6344 38.4661 -21.036
49.5302 -5.89901 -40.0106
52.8177 -4.45161 -39.6817
-7.25854 39.1449 -19.9306
-89.1689 -30.0766 7.61193
-82.6776 -31.715 9.65793
-85.3295 -31.454 7.43087
-36.9053 36.4529 20.9866
-31.1735 -18.1341 38.5769
-40.0708 34.7146 23.1152
-43.8996 33.7704 23.6562
10.781 26.198 35.1488
13.4492 20.7749 38.5001
14.4054 24.374 36.2836
-77.714 3.48023 34.4162
-76.1483 0.133978 35.0152
-54.1832 -21.6204 -33.3035
-56.2888 -17.8937 -35.0415
13.9787 -11.3819 -42.22
-53.6785 -14.634 -37.001
-31.1658 -40.0001 -14.7333
-26.9815 -40.0549 -15.5716
26.2432 10.4507 41.7428
-34.3738 -38.7009 -17.1343
12.5624 -43.5169 4.7912
9.50532 -43.1872 7.73317
-35.6255 41.6258 -6.92125
-39.9942 41.1411 -6.89744
5.43557 29.663 -32.4421
8.97181 30.0827 -31.9559
10.7252 31.9574 -30.0107
-3.32196 33.1512 28.9076
54.9781 37.2698 13.3004
2.00622 35.395 26.1285
-76.5483 -30.1427 17.6073
-0.106677 33.769 28.2074
-1.8584 18.5964 -39.8717
1.41911 19.8333 -39.2733
7.56043 -8.40417 -43.1088
89.7104 30.7219 2.6177
92.6681 29.4836 3.91935
8.95808 2.1699 43.8345
16.5315 -23.9858 -36.4311
42.941 -41.0955 -4.6264
12.2521 -24.8579 -36.0515
29.1058 -10.819 41.4154
109.329 1.08245 -21.7129
115.242 1.04777 -17.5767
112.231 -0.619061 -19.8371
16.6012 33.78 -27.5894
20.2684 34.2116 -26.7445
23.0673 32.0072 -29.0928
-63.9654 -15.4021 34.6098
40.7969 8.90688 40.6558
37.657 11.0088 40.5117
-67.7389 -15.6183 33.6198
-27.2942 -17.4924 39.2276
124.151 4.18764 -5.60128
121.953 7.39127 -7.77926
-25.7779 -14.308 40.6193
-75.6128 -23.7549 -25.9178
-72.2817 -25.6774 -25.2391
4.88573 -41.291 15.1039
-2.10782 -41.4324 14.7924
1.5088 -42.0599 12.9106
80.4286 21.3912 -26.2001
77.0458 19.6575 -28.685
77.1191 16.5145 -30.58
37.0266 -32.8665 26.2287
40.9931 -32.2157 26.3137
18.8477 40.1856 -16.6621
73.9045 -30.6533 18.1018
71.0928 -34.0608 12.5331
71.1594 -32.278 16.5585
69.2426 -26.7239 -25.196
72.3694 -24.5133 -26.3417
-1.62448 39.1981 19.9796
-4.31563 35.7167 25.6522
-1.60159 37.3925 23.1838
44.8297 32.8395 24.7289
42.6151 35.0967 21.9518
38.8884 34.5254 23.6399
0.821092 30.8972 31.3254
3.72858 31.9668 30.2063
-79.7066 9.04161 32.809
23.4888 41.8243 -10.9171
-56.4027 35.7007 16.4917
-58.2463 36.6567 13.3012
-62.8068 35.4844 13.925
106.056 21.3389 10.1773
109.257 19.3837 9.94054
110.963 19.3503 7.35554
-55.5451 38.8911 6.76383
25.5252 -9.18256 42.0941
-59.3412 38.4077 5.45203
32.3381 27.3347 32.5696
36.438 27.7239 31.6991
-27.8549 33.3594 26.9844
22.7241 40.6034 -14.9713
-24.2275 34.2379 26.3041
-12.2611 9.36118 -42.7781
-113.372 -11.6613 15.0461
-79.6405 28.9612 -17.9086
119.363 -12.1228 6.68594
120.638 -7.19814 10.1184
-18.6365 -25.0072 35.6107
121.537 -8.96778 6.86507
22.1446 -43.3124 -0.024916
18.3208 -43.5275 0.510431
15.8666 -43.5815 -2.41502
-90.1573 -30.4968 3.28451
-50.584 -7.92796 -39.4953
-49.7768 -3.81183 -40.2259
-93.1263 -29.556 0.812082
71.5903 4.59816 35.8801
-111.592 -14.9183 13.7421
40.0654 -35.8445 21.3223
-31.5831 -7.6383 -41.8991
47.6236 -33.7832 22.7382
43.4188 -34.2127 23.1232
8.91456 30.9825 31.0863
31.8843 34.598 -24.7895
28.3126 34.5231 -25.4168
5.73459 29.848 32.2656
30.647 -9.46746 -41.6098
11.9214 29.2128 32.6376
93.6477 -26.0679 13.5191
38.7685 -6.93372 -41.2785
39.8429 -37.6563 -17.9902
43.2838 -38.134 -15.8878
98.8074 -22.1232 15.852
97.3084 -24.5697 13.1547
-106.834 9.76838 21.0526
-110.537 10.1537 18.3573
-105.251 -23.4117 -5.62475
-101.919 -24.7561 -7.16801
-107.704 -21.2587 -7.99119
-8.1773 37.7145 22.4817
-17.4221 34.2159 26.9835
-10.4921 35.7007 25.4555
-13.6622 34.0782 27.4194
-14.37 -39.2074 -19.3261
-18.8208 -37.0443 -22.8112
-18.1772 -38.9441 -19.4654
-78.9318 -3.60493 34.0622
-76.3306 -32.9208 11.7856
-77.845 -7.27838 33.7804
9.27078 -4.53278 -43.6455
-9.17943 35.3472 -26.005
9.52693 -22.6212 -37.5922
5.89293 -23.298 -37.2687
-20.4078 -41.7088 12.0576
-40.1556 41.6049 2.75961
-24.1231 -41.8736 10.5527
-16.8717 29.654 -31.9655
-13.2673 34.4377 -26.9906
11.6325 41.298 14.6255
14.6001 40.1679 17.2175
-15.8634 32.4766 -29.1626
-86.6787 -31.8626 0.963117
-85.6158 -32.0996 -2.86229
-88.2747 -30.6729 -6.41396
-48.1382 -36.1487 -18.5895
32.2054 -38.3592 -18.3736
23.1425 -38.0166 -20.6195
28.2903 -39.5458 -16.5572
24.3968 -39.401 -17.6264
-29.1672 38.8541 17.9501
-24.4498 37.6786 21.0507
86.5984 31.4232 5.51734
[...]
POINT_DATA 2818
VECTORS F double
-7.93775e-08 4.99311e-08 -1.15227e-08
-7.57222e-08 5.72931e-08 -1.31774e-08
-9.28659e-08 4.57144e-08 2.82884e-08
-9.14544e-08 4.58477e-08 3.10611e-08
-1.98615e-08 4.86525e-08 5.0102e-09
1.59442e-07 3.51291e-08 4.38377e-08
-2.9135e-08 5.59949e-08 7.78612e-09
1.26167e-07 4.18364e-08 5.83962e-08
1.7847e-07 3.31815e-08 5.92934e-08
-3.50693e-08 -6.3808e-08 5.48363e-10
-2.53288e-08 -6.14859e-08 -1.43505e-09
-8.78158e-10 -6.68949e-08 -3.98648e-09
-8.32964e-09 -6.55603e-08 -2.20328e-09
1.58375e-07 2.99205e-08 4.26286e-08
1.58139e-07 2.90588e-08 4.82043e-08
2.08404e-08 5.86881e-08 1.72342e-08
-2.44921e-08 4.08935e-08 2.83652e-09
5.7652e-08 7.32646e-08 -4.77719e-09
-4.22107e-08 -1.01636e-08 1.8313e-09
7.35391e-08 6.61149e-08 -3.04557e-09
-3.54572e-08 7.41232e-08 2.08697e-08
-3.37409e-08 7.52875e-08 2.26471e-08
1.1122e-07 5.50194e-08 1.77999e-08
1.07944e-07 5.66813e-08 1.37963e-08
4.41891e-08 7.38363e-08 -1.17256e-08
-2.44775e-08 7.97098e-08 1.93129e-08
-2.70761e-08 7.67703e-08 1.79442e-08
-1.27158e-08 1.46593e-08 1.84054e-09
-3.78845e-08 6.37669e-08 -1.20317e-08
-3.75527e-08 6.83119e-08 -1.01316e-08
-1.0223e-07 3.36504e-08 -1.54991e-08
-9.82482e-08 3.99543e-08 -1.91282e-08
2.96996e-08 7.5403e-08 3.63563e-09
3.10762e-08 7.75778e-08 4.70445e-09
-5.88145e-08 6.81077e-08 2.45579e-08
-6.04858e-08 6.15201e-08 2.46821e-08
-5.74289e-08 1.32665e-09 -3.02991e-09
-7.17338e-08 5.59016e-08 2.56934e-08
-7.31517e-08 5.37841e-08 2.45747e-08
-7.46353e-08 9.98677e-09 -5.63903e-09
-7.66233e-08 1.1529e-08 -5.84153e-09
-1.08922e-07 3.52836e-08 2.72934e-08
-1.08346e-07 3.73802e-08 2.96081e-08
1.42985e-07 3.79058e-08 1.56868e-08
1.38867e-07 4.14343e-08 1.65404e-08
1.51298e-07 3.86393e-08 -2.84116e-09
1.45109e-07 4.17961e-08 -6.07744e-09
1.40814e-07 4.47556e-08 -1.62543e-09
1.44908e-07 4.39812e-08 -1.76367e-09
4.66888e-08 7.06485e-08 9.80696e-09
5.27924e-08 6.43531e-08 1.0495e-08
7.83006e-08 7.41645e-08 1.20057e-09
-1.03874e-08 2.77958e-08 4.46322e-09
8.5397e-08 6.859e-08 -1.51517e-09
-9.0343e-08 -1.43671e-08 -5.36602e-10
-8.38596e-08 -1.80235e-08 1.53623e-09
1.17782e-07 5.53893e-08 -4.28092e-09
1.0957e-07 5.98247e-08 -6.99069e-09
-9.98422e-08 4.09429e-08 2.71497e-08
-1.00139e-07 3.74235e-08 2.53638e-08
-8.19765e-08 4.39112e-08 -1.84156e-08
-9.53732e-08 4.18349e-08 -1.88823e-08
1.41084e-07 4.17206e-08 3.25646e-09
1.35562e-07 4.52313e-08 7.24107e-09
-6.16208e-08 4.31701e-08 1.58542e-08
-5.60972e-08 5.24488e-08 1.6432e-08
-1.07118e-07 3.48274e-08 2.38191e-08
5.87461e-08 6.73869e-08 1.4044e-08
-1.14021e-07 3.05795e-08 1.79232e-08
-9.76887e-08 3.6268e-08 -1.61052e-08
-8.25551e-08 4.95935e-08 -1.85163e-08
-6.42461e-08 6.06514e-08 -1.66205e-08
4.85626e-08 3.14009e-09 6.07532e-09
3.78597e-08 -5.43192e-09 -7.90131e-11
-6.40744e-08 5.78912e-08 -1.85168e-08
-5.26628e-08 5.70848e-08 -1.62137e-08
-6.26843e-08 -2.60838e-08 1.93347e-09
-6.27801e-08 -2.50246e-08 8.43754e-10
8.70191e-08 -3.04652e-08 -1.44582e-08
8.51783e-08 -2.94445e-08 -9.38094e-09
-4.95e-08 6.36758e-08 -1.55126e-08
-1.60548e-08 7.99053e-08 -8.50934e-09
-3.38414e-08 7.42083e-08 -9.48297e-09
1.0967e-07 5.83689e-08 -8.21089e-09
1.19223e-07 5.28052e-08 -5.64981e-09
-7.17316e-08 5.59644e-08 -2.13185e-08
-8.09648e-08 4.87772e-08 -2.05178e-08
-3.45133e-09 7.53974e-08 -3.01474e-10
3.74705e-09 8.30001e-08 -3.42011e-10
-2.17519e-08 7.22643e-08 -5.69796e-09
-6.6591e-08 5.22394e-08 -1.86154e-08
-6.6267e-08 5.68847e-08 -1.86035e-08
-3.50958e-09 7.21331e-08 -3.20028e-09
1.15737e-07 5.48255e-08 8.44552e-09
1.17543e-07 5.37098e-08 8.08671e-09
-5.59068e-08 -5.98844e-09 2.71598e-09
-5.91152e-08 -2.3318e-09 3.61944e-09
-9.40319e-08 4.24585e-08 1.5473e-09
1.0776e-08 3.68163e-08 1.12096e-08
-3.74251e-09 3.90036e-08 8.53067e-09
-9.57245e-08 4.13432e-08 -5.07474e-09
-9.96694e-08 3.7966e-08 2.83856e-09
2.08815e-08 -4.4202e-08 7.69197e-09
2.00284e-08 -4.74008e-08 9.01315e-09
9.24066e-08 -2.5595e-08 -1.70602e-08
9.22403e-08 -2.81482e-08 -1.7831e-08
-5.05957e-09 7.78169e-08 -4.25805e-09
1.29413e-08 8.19505e-08 -8.12424e-10
1.27654e-07 4.23721e-08 1.18915e-08
1.16371e-07 4.78104e-08 1.83249e-08
1.17931e-07 5.57459e-08 -2.52065e-09
1.13694e-07 5.97564e-08 -1.77106e-09
-5.82385e-08 -3.06071e-09 -2.72036e-09
-1.08416e-07 -1.67449e-09 7.65293e-09
-1.05835e-07 -3.54915e-09 6.42861e-09
-3.4213e-08 -4.03524e-08 -4.67355e-12
-3.29726e-08 -3.72505e-08 -6.40826e-10
-1.10879e-08 6.89315e-08 -1.50827e-09
-1.26668e-08 6.86282e-08 2.81294e-10
1.0406e-07 6.75566e-08 5.41461e-09
1.0965e-07 6.2847e-08 8.69565e-09
-1.15395e-07 3.22338e-08 2.7382e-08
-1.18001e-07 2.74075e-08 2.2874e-08
8.97429e-08 7.10359e-08 6.37453e-09
9.50157e-08 6.76445e-08 9.51856e-09
-7.02582e-08 -4.09422e-08 2.60264e-09
-6.69548e-08 -4.42163e-08 1.81658e-09
1.30781e-07 4.46367e-08 1.67637e-08
5.31617e-08 9.06615e-08 3.57683e-09
-4.45454e-08 7.3283e-08 -9.84402e-09
6.58897e-08 8.96116e-08 4.92137e-09
-7.23161e-08 -2.61483e-08 2.57824e-09
-8.18413e-08 -2.32634e-08 1.26472e-09
9.74223e-08 7.09227e-08 2.33135e-09
7.34337e-08 6.03387e-08 1.33175e-08
1.03279e-07 6.56772e-08 2.4247e-09
-1.59093e-08 7.92688e-08 1.35905e-08
2.06561e-08 3.27188e-08 -1.09767e-08
3.37693e-08 4.97201e-08 -1.98141e-08
1.68936e-07 -1.39993e-08 -9.11963e-09
1.29523e-08 8.19225e-08 4.98775e-09
-7.24182e-09 7.87769e-08 1.04311e-08
-9.64304e-08 3.56061e-08 -1.74664e-08
-1.29672e-07 8.21911e-09 1.2346e-08
-1.30443e-07 5.75889e-09 9.23512e-09
-9.31761e-08 3.6757e-08 -1.54956e-08
8.39345e-08 7.97569e-08 2.23654e-09
3.39212e-08 9.84313e-08 4.93772e-09
7.68573e-08 8.26296e-08 4.32787e-09
-1.00287e-08 -3.65376e-08 2.35723e-09
-9.90414e-08 2.95403e-08 2.17573e-08
-8.10008e-08 2.62409e-08 -1.02174e-08
-7.16605e-08 3.42471e-08 -9.86828e-09
-9.00567e-08 3.12758e-08 2.03994e-08
5.12867e-08 8.27645e-08 -1.96315e-08
4.99333e-08 7.04047e-08 -1.55121e-08
3.78842e-08 -5.68885e-08 3.04421e-11
4.3783e-08 -5.09668e-08 2.43367e-09
4.97498e-08 -4.83341e-08 -6.13097e-10
-1.08148e-07 3.36087e-08 2.58139e-08
-2.37163e-09 6.67607e-08 -7.34796e-10
-5.8809e-08 1.7052e-08 -4.09955e-09
-1.02946e-07 1.40887e-08 1.50054e-08
1.79887e-07 2.86357e-08 -3.54384e-09
1.83544e-07 2.64781e-08 1.0334e-09
-1.07362e-07 2.9464e-08 2.45952e-08
-1.17664e-07 -2.72984e-09 7.02505e-09
-1.19018e-07 -9.44376e-10 7.23722e-09
-1.16904e-07 2.05451e-09 9.93166e-09
-8.34171e-08 4.6973e-08 1.32058e-08
-8.37084e-08 5.2174e-08 1.19296e-08
8.28019e-08 -3.25563e-08 1.56161e-08
9.47137e-08 -2.5537e-08 1.06448e-08
1.65856e-07 2.38684e-08 4.64316e-08
1.69969e-07 3.20117e-08 4.72894e-09
1.72687e-07 3.11043e-08 1.05894e-08
1.68367e-08 7.94985e-08 1.20336e-08
-8.19677e-08 2.90536e-08 -1.05332e-08
-4.94815e-09 8.23074e-08 1.61888e-08
-9.64901e-09 7.9855e-08 1.94922e-08
-6.8422e-08 5.20466e-08 -1.26305e-08
-6.15314e-08 5.40072e-08 -9.97319e-09
-6.7027e-08 5.37081e-08 -1.40262e-08
9.25838e-08 5.47186e-08 1.72648e-08
-8.89126e-08 -4.73038e-09 5.09866e-09
-8.91157e-08 -1.87294e-09 6.16735e-09
-4.6162e-09 -5.93689e-09 1.05346e-09
9.63683e-08 -2.98043e-08 -1.67988e-08
1.0036e-07 -2.72593e-08 -1.18013e-08
-1.18329e-07 1.53036e-08 1.68265e-08
-1.16842e-07 1.58673e-08 1.73797e-08
9.49145e-08 5.3908e-08 2.11519e-08
9.78406e-08 5.76214e-08 2.21664e-08
-6.64813e-08 6.77525e-08 1.07691e-08
-5.98661e-08 7.53008e-08 5.06462e-09
-7.27628e-08 6.31526e-08 4.5512e-09
1.09018e-07 5.09201e-08 1.58117e-08
1.11623e-07 5.29035e-08 1.7841e-08
1.05462e-07 5.29795e-08 1.26614e-08
-3.60581e-08 7.04832e-08 1.66135e-08
-3.45768e-08 7.35045e-08 1.75143e-08
-1.14941e-07 5.6389e-09 -7.78272e-09
-1.10889e-07 1.15163e-09 -5.5943e-09
-1.14244e-07 2.79664e-09 -6.74922e-09
-9.43166e-08 -2.03119e-08 2.28238e-09
-9.29807e-08 -2.026e-08 3.55195e-10
-9.77107e-08 -2.11263e-08 9.02156e-11
-9.97239e-08 -2.19023e-08 1.58604e-09
-9.30534e-08 -2.41748e-08 2.12919e-09
-9.18505e-08 -2.4517e-08 7.82793e-10
6.91294e-09 -5.12415e-08 2.77277e-09
7.95813e-09 -4.84966e-08 4.75098e-09
-8.90077e-08 -2.32314e-08 2.01488e-09
2.47704e-07 1.13629e-09 1.32803e-08
2.49058e-07 1.84854e-10 6.60734e-09
2.41664e-07 1.8542e-09 6.54127e-09
-8.22069e-08 4.90075e-08 -1.95008e-08
-6.71525e-08 5.1387e-08 -1.84048e-08
1.97919e-07 2.30996e-08 3.85866e-08
4.68214e-08 8.44028e-08 -1.81252e-09
1.7262e-07 2.69027e-08 3.85099e-08
-3.65397e-08 -2.90565e-08 -1.25399e-09
-3.39303e-08 -3.23832e-08 -1.89637e-09
1.71437e-07 2.80829e-08 4.75124e-08
-9.76337e-08 3.93635e-08 1.55091e-08
-9.83494e-08 3.73822e-08 1.96791e-08
-9.69995e-08 3.57554e-08 1.49783e-08
1.83418e-07 3.36422e-08 -1.89459e-08
-6.04852e-08 5.63613e-08 2.05101e-08
1.72089e-07 4.0288e-08 -2.39814e-08
1.70561e-07 3.86339e-08 -1.64005e-08
8.35771e-08 5.82162e-08 -4.65296e-08
5.00121e-08 4.22636e-08 -2.49447e-08
6.79906e-08 3.68128e-08 -2.80344e-08
3.17126e-08 8.79258e-08 -1.24031e-10
2.15419e-08 8.16715e-08 5.42313e-09
-7.6106e-08 4.90559e-08 -1.66874e-08
-6.16731e-08 5.89776e-08 -1.79876e-08
-6.28993e-08 5.12502e-09 -3.93136e-09
-5.45326e-08 5.9778e-08 -1.39566e-08
-1.27947e-07 1.49789e-08 -7.53146e-09
-1.2675e-07 1.42248e-08 -9.70185e-09
1.02652e-08 -1.50984e-09 -4.12105e-10
-1.24619e-07 1.91332e-08 -1.26079e-08
-1.27829e-07 -4.15507e-09 3.29568e-09
-1.27093e-07 -2.39794e-09 5.73419e-09
1.96734e-07 2.2286e-08 1.00548e-08
1.92828e-07 2.37871e-08 4.9933e-09
8.04231e-08 4.40532e-08 4.19291e-08
8.23594e-08 3.83543e-08 3.89369e-08
9.53322e-08 3.01355e-08 3.62615e-08
1.77303e-07 4.10421e-08 -4.45725e-08
1.20367e-07 -2.52295e-08 9.78261e-09
1.81919e-07 4.39477e-08 -6.12439e-08
-9.45857e-08 4.51036e-08 2.68697e-08
1.72115e-07 5.24283e-08 -6.26857e-08
3.59426e-08 4.44452e-08 2.05243e-08
3.61056e-08 4.5905e-08 2.3342e-08
-5.70427e-08 1.45968e-08 -4.0705e-09
8.12499e-08 -2.89744e-08 -8.5618e-10
8.00407e-08 -3.10733e-08 2.05645e-09
-1.32966e-08 2.93859e-08 -1.12191e-09
-9.08373e-08 -1.34252e-09 -4.16264e-09
-1.1633e-07 -1.48752e-08 -6.03888e-11
-9.23727e-08 1.14841e-09 -4.63533e-09
-4.53687e-08 -6.45862e-09 2.21641e-09
-5.67575e-09 -5.39597e-08 -6.18908e-09
-3.11907e-09 -5.6362e-08 -5.86381e-09
-7.18153e-09 -5.55336e-08 -3.24162e-09
1.09627e-07 1.4687e-08 2.60587e-08
1.09443e-07 1.5623e-08 3.01397e-08
8.43486e-08 2.81068e-09 1.12802e-08
-4.245e-08 7.71652e-08 2.47348e-08
1.21362e-08 -2.3611e-08 3.68169e-09
1.38034e-08 -1.9768e-08 3.80101e-09
-4.36483e-08 7.17108e-08 2.25466e-08
-5.95048e-08 5.90196e-08 2.12492e-08
1.65933e-08 -6.47898e-08 -3.41264e-09
2.56781e-08 -5.8998e-08 -6.77291e-09
-5.03243e-08 5.83412e-08 1.66405e-08
-7.81463e-08 5.18562e-08 -1.96163e-08
-7.99866e-08 4.61791e-08 -1.89357e-08
-1.2394e-07 1.60947e-09 9.30852e-09
-1.25574e-07 4.71756e-09 1.10229e-08
-1.25689e-07 2.19809e-09 8.95953e-09
4.4029e-08 -4.32658e-08 -1.87771e-08
4.16772e-08 -4.46645e-08 -1.69031e-08
2.85547e-08 -4.64555e-08 -1.62716e-08
-9.49084e-08 -1.17137e-08 1.72518e-09
-9.35653e-08 -1.26891e-08 2.31047e-09
1.9469e-07 1.78484e-09 3.12674e-08
-8.71348e-08 -2.73158e-08 -2.70198e-09
-9.54922e-08 -2.52677e-08 -2.35206e-09
-9.03343e-08 -2.5186e-08 -1.56721e-09
-8.09404e-08 -2.68133e-08 1.20609e-09
-7.64218e-08 -3.04129e-08 2.59685e-09
2.19068e-07 2.43158e-08 -4.55248e-08
1.87814e-07 3.88528e-08 -5.02282e-08
2.05704e-07 2.72196e-08 -4.21618e-08
1.11644e-07 -3.23026e-08 1.81183e-08
1.25255e-07 -2.60087e-08 1.18131e-08
1.26012e-07 -2.73487e-08 1.4563e-08
1.60711e-07 5.56568e-08 -5.54117e-08
1.51909e-07 6.59117e-08 -7.20488e-08
5.29661e-08 8.08368e-08 -6.52323e-09
2.56252e-07 -1.18291e-08 2.2183e-08
1.66652e-07 3.51739e-08 -6.36264e-09
1.63916e-07 3.44887e-08 -7.16751e-09
1.59358e-07 3.66869e-08 -5.48887e-09
5.763e-08 -3.81212e-08 6.40406e-09
5.67462e-08 -4.18729e-08 5.29143e-09
5.6188e-08 -4.06104e-08 3.05896e-09
1.72481e-07 3.1238e-08 -6.20055e-09
-4.41857e-08 -1.86896e-09 2.8727e-09
1.67294e-07 3.17525e-08 -7.56038e-10
7.77931e-08 -1.40587e-08 2.34257e-09
7.98223e-08 -1.87836e-08 5.1944e-09
1.67779e-07 3.79271e-08 -2.56832e-08
1.95973e-07 -2.20583e-09 3.04353e-08
1.68409e-07 4.14161e-08 -3.49172e-08
2.50036e-10 5.9124e-08 1.29294e-08
-3.89181e-08 7.80831e-08 2.4615e-08
1.23216e-07 4.89721e-08 1.21103e-08
-4.66372e-08 -5.71937e-08 -1.76407e-09
-2.88889e-08 -6.06077e-08 -9.45684e-10
-8.41491e-08 4.05166e-08 2.30607e-08
-3.65151e-08 -6.28428e-08 -2.94373e-09
-1.25312e-07 -7.84499e-09 1.6913e-09
-1.26533e-07 -6.5008e-09 1.67816e-09
-1.27724e-07 -5.75797e-09 1.17196e-09
-9.94257e-08 3.7418e-08 1.3296e-08
-3.56667e-08 6.76787e-08 -7.9926e-09
-1.56655e-08 6.68404e-08 -3.96057e-09
-9.69253e-08 3.75555e-08 6.03508e-09
1.87745e-09 -4.00898e-08 4.67897e-09
-5.12677e-08 6.88558e-08 2.37796e-08
-1.01547e-07 -1.26463e-08 2.10138e-09
-4.32655e-08 6.15109e-08 -7.22076e-09
-9.59949e-08 -1.61238e-08 6.5941e-10
-9.75601e-08 -1.53201e-08 -2.39267e-10
1.25575e-07 5.43358e-08 -5.8563e-08
1.00342e-07 -1.48736e-08 -4.95766e-09
9.82717e-08 -7.20148e-09 3.62058e-09
1.25191e-07 5.61203e-08 -5.46394e-08
-5.44096e-08 -1.36995e-08 -1.78928e-09
1.16247e-07 4.68615e-08 -4.71427e-08
-7.65254e-08 -3.53011e-08 -3.16848e-09
-4.30506e-08 -2.4798e-08 -7.84837e-10
-1.10947e-07 -1.44707e-08 2.06789e-10
-1.0953e-07 -1.52213e-08 1.44642e-12
-6.64145e-08 -3.90641e-08 -3.83577e-09
-7.46228e-08 -3.72434e-08 -1.97928e-09
5.94765e-08 7.80097e-08 7.55992e-10
5.80624e-08 7.79051e-08 -2.86412e-10
-8.72669e-08 4.78743e-08 6.56685e-10
-8.76545e-08 4.56095e-08 -4.93259e-09
-8.13396e-08 5.27038e-08 -5.98833e-09
2.06937e-07 1.99784e-08 -2.42998e-08
1.69199e-07 3.43718e-08 -3.02098e-08
1.8002e-07 3.06385e-08 -3.38855e-08
1.7143e-07 3.73331e-08 -3.59416e-08
-1.25526e-07 1.03617e-08 -9.59419e-09
-1.21547e-07 1.46193e-08 -1.14631e-08
-1.26519e-07 1.24367e-08 -1.04174e-08
8.52981e-09 8.54013e-08 1.14583e-08
-1.02935e-07 3.64927e-08 2.03148e-08
-7.90144e-09 7.82059e-08 1.46212e-08
-4.58819e-08 1.14269e-08 -2.37991e-09
1.38848e-07 4.0726e-08 4.93562e-08
-8.96811e-08 5.42756e-09 -6.04862e-09
-9.14081e-08 7.57653e-09 -6.50598e-09
-1.28636e-07 1.20652e-08 1.50799e-08
1.93858e-07 2.29563e-08 -7.39156e-10
-1.29481e-07 1.24482e-08 1.31571e-08
1.04587e-07 5.0075e-08 3.96957e-08
1.39687e-07 3.72337e-08 3.91004e-08
2.52794e-07 5.52225e-09 -4.02091e-08
2.64326e-07 9.87794e-09 -5.0487e-08
1.28497e-07 4.41366e-08 4.05946e-08
-1.02265e-07 3.42805e-08 7.28889e-09
-1.06609e-07 3.44882e-08 3.63863e-09
-1.00287e-07 3.61012e-08 -3.66003e-09
-1.14554e-07 2.61898e-08 -1.46101e-08
-1.14706e-07 -1.17846e-08 -1.25795e-11
-1.1662e-07 -7.27504e-09 -2.61176e-09
-1.17433e-07 -9.75505e-09 -1.26633e-09
-1.18704e-07 -8.57843e-09 -9.39459e-10
1.97327e-07 2.79953e-08 -2.13415e-08
1.91693e-07 2.83964e-08 -2.35681e-08
8.48775e-08 -2.9396e-08 4.31793e-09
8.0065e-08 -2.91587e-08 5.35164e-09
2.00466e-07 2.70416e-08 -2.70014e-08
1.75414e-07 2.95071e-08 6.75613e-08
8.22727e-08 7.95904e-08 -1.85117e-08
8.02716e-08 7.82654e-08 -1.2106e-08
2.26641e-07 1.42825e-08 5.37505e-08
2.21851e-07 1.0843e-08 6.2561e-08
-3.88824e-08 7.9548e-08 1.89327e-08
1.26306e-07 5.4033e-08 5.57527e-09
6.89748e-08 8.28246e-08 5.70273e-09
1.09146e-07 6.05133e-08 1.12435e-08
1.0946e-07 5.28688e-08 4.70548e-08
9.654e-08 4.67012e-08 3.60539e-08
1.09429e-07 -2.87694e-08 1.41872e-08
9.64932e-08 -3.35036e-08 1.86762e-08
-8.83679e-09 -5.04651e-08 2.98909e-09
-6.9256e-09 -5.51747e-08 2.99894e-09
-1.14904e-08 -5.36852e-08 -5.75577e-11
7.71612e-08 8.41965e-08 8.35265e-09
8.82408e-08 7.7135e-08 6.03085e-09
3.97733e-08 -9.76982e-09 -2.13479e-09
-7.90153e-08 4.83595e-08 2.46984e-08
4.72399e-08 -1.67097e-08 -6.38188e-09
-9.92283e-08 -1.78096e-10 7.69133e-09
-1.01568e-07 1.41274e-09 8.34955e-09
-6.78288e-08 4.88791e-08 2.05617e-08
-7.00544e-09 -4.27344e-08 -6.45474e-09
1.18395e-07 5.93806e-08 3.68204e-09
1.8018e-08 -5.49222e-08 -9.96292e-09
1.83046e-08 -5.43488e-08 -7.82876e-09
-6.83223e-08 -4.7264e-08 -9.80321e-10
8.35528e-08 5.46958e-08 2.63812e-08
9.07963e-08 5.80555e-08 3.46786e-08
-4.94755e-08 5.96001e-08 1.64401e-08
8.61673e-08 6.18448e-08 3.16759e-08
-3.22338e-08 6.81091e-08 1.4138e-08
8.89234e-08 7.42236e-08 -4.08963e-08
1.60706e-07 3.85087e-08 -6.07542e-08
1.61857e-07 4.03133e-08 -5.55561e-08
8.53379e-08 6.81805e-08 -3.41574e-08
8.87998e-08 7.46444e-08 -3.47678e-08
-8.15831e-08 4.89603e-08 2.82051e-08
-7.55977e-08 5.71176e-08 3.06883e-08
4.75891e-08 -4.2748e-08 1.38177e-08
5.72805e-08 -3.69152e-08 1.21884e-08
4.7982e-08 -4.02927e-08 1.16044e-08
-1.09855e-07 2.83021e-08 -1.56797e-08
-1.01472e-07 3.4796e-08 -1.82442e-08
-9.78368e-08 3.65975e-08 -1.66177e-08
3.12567e-07 -2.01695e-08 -6.27363e-09
-7.18766e-07 8.70095e-08 -2.89316e-07
2.92697e-07 -1.538e-08 -5.27154e-09
1.25786e-07 2.5866e-08 4.39308e-08
9.55983e-08 2.34047e-08 3.04663e-08
3.06638e-08 -5.02023e-08 -8.85547e-09
-1.25706e-07 9.51606e-09 1.275e-08
-4.55136e-08 -4.43102e-08 -2.63802e-09
-1.26697e-07 5.47754e-09 1.0631e-08
-1.24224e-07 8.81797e-09 1.34958e-08
2.1503e-07 1.33583e-08 1.70915e-08
-3.7435e-08 -3.89783e-08 -2.85675e-09
-4.35132e-08 -3.37101e-08 -1.98443e-09
7.74464e-08 6.07455e-08 2.10508e-08
7.77498e-08 6.61239e-08 2.64735e-08
-4.51596e-08 -3.67655e-08 -3.36137e-09
-9.13921e-08 5.12849e-08 3.17265e-08
-9.42381e-08 3.59962e-08 2.47153e-08
-9.3487e-08 3.76288e-08 2.51544e-08
-5.84795e-08 1.38272e-09 4.33949e-09
-4.77415e-08 2.37064e-09 3.69184e-09
-6.17796e-08 4.701e-09 5.4537e-09
1.23168e-07 -2.45661e-08 -8.63999e-09
1.74118e-07 2.98707e-08 1.03445e-09
-5.12538e-08 -3.25557e-08 1.7888e-09
1.67708e-07 3.19676e-08 5.75544e-09
1.77242e-07 2.96988e-08 -3.06862e-10
-6.01477e-08 5.19768e-08 -1.04821e-08
1.02398e-07 5.81333e-08 1.08812e-08
-7.43695e-08 5.16675e-08 -1.62329e-08
1.94885e-07 1.3306e-08 3.85923e-08
2.08751e-07 6.4223e-09 3.34295e-08
-1.40526e-08 7.99835e-08 1.54079e-08
-3.61467e-08 7.72379e-08 1.94633e-08
-3.57955e-08 7.7547e-08 1.89915e-08
-1.24412e-07 1.80089e-08 1.86805e-08
-1.23239e-07 1.76191e-08 1.95069e-08
-3.6691e-08 7.27259e-08 2.13852e-08
1.22207e-07 -3.07482e-08 1.81743e-08
1.06362e-07 -2.01992e-08 6.62942e-09
1.04438e-07 -1.71014e-08 4.23995e-09
1.35867e-07 -2.62628e-08 1.04226e-08
1.17946e-07 -2.60959e-08 9.83103e-09
6.54847e-08 -1.07091e-08 -2.33857e-09
6.43361e-08 -1.76875e-08 -6.95282e-09
6.5e-08 -3.45339e-08 1.19608e-08
-6.52891e-08 -2.15754e-08 6.47022e-10
5.04057e-08 -3.9463e-08 1.3106e-08
5.96354e-08 -3.98388e-08 1.48642e-08
-5.65476e-08 -4.5809e-08 1.74673e-09
-5.67309e-08 -4.62171e-08 2.92717e-09
-5.95953e-08 -4.29443e-08 2.89554e-09
1.42767e-07 4.59667e-08 3.56063e-08
1.42504e-07 3.97702e-08 2.3795e-08
1.36798e-07 4.29775e-08 2.36984e-08
1.06517e-07 5.50031e-08 1.46764e-08
1.18508e-07 5.83383e-08 -2.89109e-08
-7.95472e-08 5.00172e-08 -1.98987e-08
1.85259e-07 3.50971e-08 -2.76615e-08
1.81009e-07 2.80475e-08 4.62718e-09
1.16371e-07 5.45629e-08 -2.4527e-08
9.24484e-08 7.31459e-08 4.44691e-09
1.31866e-07 4.63616e-08 2.58006e-09
-5.92236e-08 6.2619e-08 2.62804e-08
-5.83319e-08 6.78612e-08 2.52005e-08
-8.88694e-08 4.17364e-08 -1.74118e-08
-8.63111e-08 4.42544e-08 -1.65182e-08
-8.62471e-08 4.87732e-08 -1.86464e-08
-1.04222e-07 3.59303e-08 -1.52967e-08
3.07528e-08 9.41174e-08 3.86923e-09
-1.04412e-07 3.36223e-08 1.29993e-08
2.50029e-08 9.17595e-08 8.3253e-09
1.63612e-07 3.37719e-08 2.95491e-09
1.59005e-07 3.38572e-08 1.18065e-09
-1.21245e-07 2.66188e-08 2.38851e-08
-1.93535e-08 5.6275e-08 5.82104e-09
-1.20231e-07 2.45434e-08 2.14898e-08
-7.50215e-08 6.16843e-08 2.99638e-08
1.2155e-07 5.07673e-08 1.00611e-08
-5.29841e-08 -5.82403e-08 3.82968e-10
-5.9599e-08 -5.28042e-08 -4.89452e-10
-6.33586e-08 -5.21185e-08 -7.91635e-10
-1.1905e-07 2.15243e-08 -1.55778e-08
-1.13156e-07 2.68829e-08 -1.67097e-08
-1.20378e-07 2.2567e-08 -1.46756e-08
-1.21485e-07 2.63194e-08 1.66531e-08
-1.13364e-07 3.28587e-08 2.58743e-08
-1.12034e-07 2.94015e-08 2.21742e-08
9.19922e-08 6.50374e-08 1.07346e-08
-5.14378e-08 -3.27721e-08 -2.73921e-09
-5.01839e-08 -3.19447e-08 -3.04455e-09
1.63964e-07 3.35266e-08 1.55143e-09
3.29064e-08 -1.97408e-08 4.7171e-09
2.54343e-08 -2.4678e-08 5.53451e-09
1.54973e-07 3.79612e-08 1.2128e-09
1.59454e-07 3.57895e-08 -1.85357e-09
3.25759e-08 9.11328e-08 4.30323e-09
1.94691e-08 8.64524e-08 9.71256e-09
2.6938e-08 8.53394e-08 5.39691e-09
-8.74748e-08 3.01581e-08 -1.2979e-08
-9.20399e-08 3.36431e-08 -1.53918e-08