# vtk DataFile Version 2.0
S, Created by Mohamad Ibrahim Cheikh
ASCII
DATASET UNSTRUCTURED_GRID
POINTS 2818 double
-101.727 -21.838 -13.862
-104.857 -19.152 -14.9362
-61.0035 -28.9767 25.3127
-56.6693 -29.4643 25.9746
-8.80254 5.17081 -43.5864
-10.2115 37.4266 -22.8578
-12.8634 -5.36151 43.4396
9.00436 35.8927 -25.2545
10.5021 37.9578 -21.9477
121.072 -9.57249 -7.0512
120.473 -7.13584 -10.3999
124.24 -1.20363 -6.69132
122.171 -2.93853 -10.0005
-3.18818 37.7636 -22.5537
-0.140188 38.7223 -20.8945
-11.3678 14.0607 -41.5027
-6.65298 3.51142 -43.7978
-93.9748 12.3323 26.5085
31.759 -9.15403 41.5778
-91.898 15.2089 25.8986
-79.7578 -11.9756 31.8397
-75.8422 -12.3249 32.8614
-80.2518 27.734 -19.4508
-84.1616 25.9788 -19.8471
-24.1391 10.2859 41.9388
-68.9021 -9.43012 35.5786
-72.851 -9.54411 34.5708
11.3657 7.08795 -43.2429
-67.7925 -10.4385 -35.558
-64.5256 -8.52117 -36.7919
-59.9252 -31.3599 -22.6474
-62.8395 -29.2454 -24.4388
-99.1278 5.00599 26.6064
-95.7218 4.54221 28.1705
-45.8781 -16.459 37.5154
-42.919 -18.2354 37.1207
15.619 -8.73105 -42.7773
-33.9159 -20.5018 37.0789
-37.4719 -21.0415 36.3503
6.68514 -15.4516 -41.1312
3.1088 -16.5657 -40.7479
-53.6653 -34.0716 20.5555
-49.8233 -33.4413 22.6663
-53.7274 34.8027 -19.2707
-57.2795 33.5052 -20.2907
-67.6879 35.4254 10.9595
-71.0721 34.0684 12.5267
-80.6005 33.1821 6.29189
-79.2925 34.0494 2.62318
-77.2648 12.0809 -32.5447
-74.4575 14.0184 -32.569
-107.809 15.284 16.7156
3.6602 7.82855 -43.279
-103.98 17.8094 17.1789
35.4267 -27.7689 -31.7999
37.7776 -25.6681 -33.2027
-89.6916 26.2811 16.137
-92.0809 24.3478 17.4673
-66.7401 -31.407 20.1064
-68.8136 -32.4943 17.3313
-68.2265 -25.5811 -26.6779
-69.0058 -28.4545 -23.3099
-75.8262 33.9601 -8.87589
-79.649 32.5831 -9.88171
-14.337 -15.9699 40.6915
-17.1233 -13.5979 41.415
-69.2092 -33.8943 14.1684
-62.563 15.2945 -34.9696
-67.3824 -35.4428 11.1321
-66.1624 -30.2886 -21.9697
-83.1724 -24.1113 -22.5325
-85.9639 -17.2962 -27.0574
24.0383 25.2136 -35.0646
26.3636 22.4088 -36.7253
-82.7227 -18.7096 -27.3524
-66.4188 -15.9262 -33.7973
48.2412 -17.7935 -36.5304
44.8976 -15.9387 -37.8835
82.4494 31.8496 -9.45146
85.5878 31.3517 -7.49912
-69.144 -13.6319 -34.1298
-107.462 -3.61912 -22.5624
-107.147 -7.41017 -21.8069
-86.5433 24.4526 20.5207
-83.4951 26.8161 19.0625
-84.2505 -21.3444 -24.7262
-79.3539 -24.7522 -23.5027
-69.8717 0.792604 -36.574
-98.6247 1.87653 -27.2327
-67.4295 -4.10358 -36.9121
-70.2892 -20.5239 -30.1644
-67.4692 -18.8228 -32.0061
-66.5169 -0.786273 -37.3321
-95.0008 27.481 -8.70874
-91.6653 27.8639 -11.4401
27.5385 -14.363 40.4581
24.0736 -15.9778 40.1218
-100.819 -25.9995 -3.94906
1.37838 13.6602 -41.823
0.455185 10.3486 -42.7654
-97.2783 -27.1612 -6.30108
-94.3832 -28.8091 -3.92429
92.7675 9.32919 28.202
89.0921 9.23442 29.647
40.734 33.2031 -25.108
44.4377 32.3934 -25.3949
-104.724 -0.78586 -24.345
-104.883 3.24136 -24.056
-67.8554 31.9643 -18.7235
-65.6894 29.8714 -22.7024
-93.8875 26.5459 12.3332
-97.246 24.7002 12.9654
19.3874 -10.3612 -42.2212
16.2389 -36.3546 24.1259
20.1414 -35.06 25.6345
69.021 -8.0603 -35.8857
72.4918 -8.09632 -35.0296
-42.2674 -0.456669 -41.4375
-46.4041 0.362286 -40.893
-107.812 22.2837 -4.04527
-103.623 24.4377 -4.91701
-54.0971 -35.8901 17.0179
-50.761 -37.2369 15.2953
-109.705 19.3737 -9.33666
-106.019 21.2551 -10.3971
100.489 -23.0877 -12.9098
104.207 -21.0171 -12.837
-64.1746 32.2256 -19.8317
-121.493 10.309 4.75273
-113.008 -9.29686 -16.9128
-120.365 12.4853 2.52556
56.1093 -23.1717 -31.8376
54.2608 -26.1812 -29.8342
-110.302 19.9781 6.87979
-66.3639 18.3555 -32.5557
-107.195 22.0188 6.65916
-65.5237 -6.25507 37.0302
12.5106 13.9864 41.4876
9.37178 16.9149 40.4862
37.4708 38.966 15.6765
-57.4195 0.46864 39.1424
-57.635 -4.09635 38.8913
-29.3337 -25.1972 -34.5797
-15.8394 -42.127 11.4279
-12.8244 -42.7748 9.28335
-26.9046 -22.3827 -36.6932
-115.722 16.4743 5.00553
-123.737 6.91158 3.70352
-117.93 14.9919 2.92449
56.1317 -0.0511786 39.3732
-21.6589 -29.9808 31.3004
-9.93988 -18.0743 -39.9653
-14.4792 -14.4579 -41.2468
-16.6632 -26.6258 34.5408
-16.7154 13.3275 41.5231
-21.197 12.8059 41.4367
122.92 8.76039 3.06691
120.437 11.7269 4.75561
119.199 13.8408 2.21199
-34.643 -32.3836 27.2097
-16.1846 2.10091 43.5834
2.1763 -8.54379 -43.1558
-1.32319 -31.381 30.8386
-48.4212 40.5971 0.906851
-44.3787 41.1656 0.522343
-29.7926 -33.392 26.689
13.8896 -39.8687 17.9684
9.29156 -39.8033 18.4696
6.61318 -38.5296 21.1214
-105.544 -23.2517 5.61589
-109.07 -21.2845 5.14953
46.6663 27.6097 30.1178
44.6663 30.3146 27.7987
6.61873 38.882 -20.4653
-52.5431 38.4576 -10.909
-48.2585 39.2361 -10.5547
-86.9298 -0.934383 31.7796
-13.5398 -17.8985 -39.9149
-88.5213 -5.02946 30.8437
-91.3647 -6.86174 29.4436
-37.9955 -14.4166 -39.388
-31.4417 -10.7286 -41.2294
-33.9813 -14.2804 -39.8835
-54.3401 22.8696 -32.4263
25.7038 -29.1415 31.7157
21.6676 -28.0401 33.0495
28.7197 4.80682 42.5665
77.3841 33.6614 -8.35242
74.9415 34.7849 -6.19776
-17.9136 -37.7545 21.7096
-14.7707 -36.5444 23.954
-51.0439 24.8429 -31.6203
-47.8509 24.0813 -32.7988
-119.756 -13.2644 2.05348
-122.21 -10.3664 -0.100625
-117.951 -15.237 -0.72081
-73.8172 27.7775 -22.3
-69.8719 27.6765 -23.9227
-77.5077 25.8588 -23.0614
-42.3212 -10.332 40.1244
-38.8803 -10.0447 40.6206
-0.900094 -34.2843 -27.5769
6.7236 -33.3056 -28.6566
3.56884 -34.937 -26.7179
49.4283 -32.342 -24.308
53.6611 -32.0456 -23.5911
57.7472 -34.3436 -18.6612
58.8635 -35.5429 -15.7637
61.3035 -32.1399 -21.0457
65.023 -31.8353 -20.1215
108.718 1.93092 22.0271
104.985 3.46423 23.9708
56.8883 -30.1881 -25.0691
7.24739 43.0036 -8.95888
5.73814 43.6716 -4.97561
3.86783 43.2306 -8.0797
-64.6708 -23.6834 -29.3778
-63.9688 -20.4613 -31.8802
-6.20635 40.4862 -17.0923
-81.7425 7.97635 32.4703
-7.09413 38.8685 -20.4714
48.7708 -6.46541 -40.0373
52.1096 -5.08468 -39.7202
-3.72572 39.5603 -19.2168
-90.8366 -29.3437 8.04597
-84.3518 -31.0019 10.1863
-86.9793 -30.7889 7.86195
-33.2441 37.1073 20.5849
-32.0919 -16.7331 39.1141
-36.6194 35.4905 22.6328
-40.4944 34.5313 23.2986
12.9244 27.6098 33.9595
14.7627 21.8434 37.8442
16.0902 25.3021 35.5543
-76.8605 5.20671 34.4329
-75.4529 1.76192 35.1551
-55.4795 -20.7367 -33.6029
-57.2815 -16.82 -35.3747
12.764 -11.208 -42.3135
-54.5263 -13.5447 -37.2632
-33.5999 -39.7285 -14.8131
-29.3947 -39.7897 -15.716
26.6067 10.5309 41.6945
-36.7259 -38.346 -17.3334
10.0226 -43.5824 4.92737
6.99768 -43.2093 7.93496
-31.8036 42.0121 -6.86642
-36.2588 41.5586 -6.92278
7.44602 30.7195 -31.3931
11.0024 31.0971 -30.8893
13.0338 32.7692 -29.0065
0.723824 34.0838 27.825
57.5661 36.7453 13.4189
6.12935 36.3494 24.7006
-78.1304 -29.2263 18.2883
3.7974 34.923 26.7323
-0.797867 19.5947 -39.395
2.44286 20.936 -38.6905
6.49908 -8.0203 -43.203
91.4234 30.1038 2.5413
94.3529 28.8236 3.90704
8.86857 2.9813 43.7891
14.7314 -23.9736 -36.5335
40.5831 -41.3908 -4.60043
10.4231 -24.8035 -36.1592
28.2851 -10.8428 41.4787
109.151 -0.0535913 -21.8489
115.114 -0.137092 -17.7099
112.019 -1.78816 -19.9125
19.2135 34.2684 -26.7671
22.8228 34.8153 -25.6928
24.8346 32.339 -28.5426
-64.4602 -13.7388 35.1928
41.1818 8.48198 40.6992
38.084 10.6706 40.5532
-68.2563 -14.1035 34.157
-28.1969 -16.0089 39.7791
124.428 2.81935 -5.70476
122.428 6.13989 -7.95173
-26.5032 -12.8284 41.054
-76.9333 -22.8549 -26.2492
-73.6352 -24.8837 -25.5532
2.45171 -41.2064 15.4043
-4.55486 -41.281 15.1439
-0.955265 -41.9727 13.1978
81.3166 20.4638 -26.6022
77.8828 18.703 -29.0442
77.6802 15.5317 -30.9192
35.1532 -33.0494 26.3143
39.1471 -32.4202 26.4065
23.4248 40.2467 -15.7805
72.1439 -31.1827 18.0671
69.1541 -34.5545 12.5095
69.3366 -32.766 16.5467
67.5623 -27.2691 -25.1703
70.7763 -25.13 -26.2906
3.19418 39.7336 18.8678
-0.0758206 36.58 24.452
2.98155 38.0078 22.1431
47.3023 32.1759 25.0354
45.4101 34.5587 22.1187
41.717 33.9429 23.8917
4.56145 32.15 29.9972
7.31295 33.363 28.5721
-78.4851 10.6241 32.6951
29.337 41.5601 -10.1679
-53.1366 36.3951 16.3007
-55.0406 37.3318 13.0933
-59.7014 36.2039 13.7442
107.266 20.5449 10.2579
110.444 18.5079 10.0028
112.134 18.4997 7.36924
-52.1902 39.4912 6.55515
24.7394 -9.09429 42.1706
-56.0912 39.0157 5.34619
34.1619 27.0636 32.5681
38.2992 27.3571 31.7491
-24.3408 34.0888 26.4843
27.1581 40.6915 -13.7804
-20.6788 35.0086 25.6523
-11.9943 10.6399 -42.4874
-113.954 -10.1605 15.5862
-77.2636 29.8217 -17.7707
118.374 -13.2863 6.627
120.018 -8.4328 10.0677
-20.1209 -23.9514 36.2321
120.746 -10.2503 6.7772
19.6383 -43.4601 0.0579752
15.7911 -43.6475 0.602465
13.3214 -43.6898 -2.34066
-91.8754 -29.8173 3.67154
-51.0609 -6.68756 -39.6494
-49.8617 -2.60222 -40.3093
-94.8037 -28.888 1.05282
71.7051 3.81005 35.9443
-112.41 -13.597 14.2855
38.0472 -36.0599 21.4115
-32.2228 -6.40893 -42.0453
45.7155 -34.0693 22.7907
41.4794 -34.4793 23.1632
11.954 32.2065 29.6858
34.0146 34.3839 -24.7406
30.4016 34.5333 -25.1057
8.76843 31.1133 30.9604
29.5601 -9.68878 -41.6551
14.7701 30.3138 31.4701
92.084 -26.7714 13.459
37.8863 -7.39084 -41.2994
37.5893 -37.9424 -17.9829
41.053 -38.4394 -15.8767
97.4512 -22.9046 15.7698
95.7821 -25.3126 13.1175
-105.589 11.2676 21.0729
-109.324 11.6511 18.3578
-106.78 -22.573 -5.52305
-103.448 -23.9673 -7.16854
-109.131 -20.3356 -8.02302
-3.64062 38.1354 21.9104
-13.6342 34.8275 26.463
-6.47491 36.3575 24.678
-9.8149 34.8658 26.6193
-16.8033 -39.0053 -19.494
-21.1631 -36.7597 -23.0194
-20.631 -38.7011 -19.6497
-78.4899 -1.91035 34.3234
-78.0888 -32.2025 12.3465
-77.6943 -5.7075 34.1231
8.42255 -4.21215 -43.6987
-6.20258 36.0178 -25.1795
7.77011 -22.466 -37.7344
4.10208 -23.1042 -37.4184
-22.8629 -41.4146 12.5234
-36.3693 42.0355 2.65904
-26.5923 -41.5819 10.9714
-14.5575 30.4948 -31.3068
-10.2715 35.0292 -26.3826
17.1518 41.3805 13.6981
20.2693 40.3081 16.1542
-13.1086 33.2037 -28.5039
-88.4486 -31.2518 1.23742
-87.4832 -31.4942 -2.66799
-90.0213 -30.054 -6.37181
-50.2311 -35.6875 -18.8014
29.8863 -38.5909 -18.3681
20.8035 -38.1573 -20.6648
25.9233 -39.7409 -16.5646
22.0063 -39.5691 -17.635
-25.2302 39.3901 17.5068
-20.52 38.2179 20.5874
88.3908 30.8007 5.54785
[...]
POINT_DATA 2818
VECTORS F double
-4.16538e-08 2.43854e-08 -9.92294e-10
-3.97844e-08 2.87521e-08 -2.67285e-09
-4.24503e-08 4.03812e-08 3.37011e-08
-4.13119e-08 4.24895e-08 3.71633e-08
3.27782e-10 4.30715e-08 5.10161e-09
1.18444e-07 1.40713e-08 1.65616e-08
-4.72731e-10 6.18225e-08 7.61326e-09
1.21167e-07 3.21134e-08 5.09298e-08
1.53244e-07 2.11935e-08 4.56311e-08
-3.11599e-08 -4.74012e-08 -1.15462e-09
-2.40133e-08 -4.61762e-08 -2.37358e-09
-6.25469e-09 -5.11854e-08 -5.01264e-09
-1.19919e-08 -5.01127e-08 -3.21161e-09
1.26734e-07 1.01887e-08 1.48666e-08
1.26862e-07 1.03613e-08 1.90977e-08
3.83143e-08 4.53462e-08 1.4078e-08
-4.21281e-09 3.68156e-08 3.02995e-09
4.78561e-08 4.97998e-08 -2.39698e-09
-2.1969e-08 -1.47154e-09 1.73049e-09
5.63695e-08 4.55018e-08 -2.23225e-09
-1.01244e-09 5.4617e-08 2.02322e-08
5.98085e-10 5.71211e-08 2.15926e-08
7.31304e-08 2.89583e-08 4.34951e-09
7.05327e-08 2.97684e-08 2.34695e-09
6.70564e-08 6.79639e-08 -1.19434e-08
8.51868e-09 6.2791e-08 1.86626e-08
6.34507e-09 5.81516e-08 1.76912e-08
-7.4665e-10 1.89646e-08 3.08445e-09
-1.17455e-08 3.26424e-08 -6.84103e-09
-1.14687e-08 3.60904e-08 -5.89619e-09
-5.64265e-08 1.62174e-08 -4.17685e-09
-5.31516e-08 2.038e-08 -7.65592e-09
3.09257e-08 5.13168e-08 4.45127e-09
3.22013e-08 5.28518e-08 4.87436e-09
-1.56195e-08 6.64072e-08 2.67961e-08
-1.73461e-08 6.08651e-08 2.74444e-08
-3.86043e-08 6.19783e-09 -2.99077e-09
-2.92969e-08 5.847e-08 2.90487e-08
-3.02617e-08 5.56615e-08 2.84005e-08
-4.94003e-08 1.1432e-08 -5.2776e-09
-5.05696e-08 1.16822e-08 -5.22165e-09
-5.80493e-08 3.24051e-08 3.51582e-08
-5.80145e-08 3.58587e-08 3.72923e-08
9.52245e-08 1.8909e-08 1.64539e-09
9.22833e-08 2.06627e-08 2.22498e-09
1.01337e-07 2.63335e-08 -8.49364e-09
9.73645e-08 2.83972e-08 -9.5986e-09
9.32111e-08 2.90565e-08 -7.04889e-09
9.50819e-08 2.7707e-08 -7.76511e-09
3.66847e-08 3.47373e-08 2.2319e-09
4.03397e-08 3.08846e-08 2.00253e-09
5.63129e-08 4.83845e-08 2.25816e-10
5.00772e-09 2.83135e-08 5.17332e-09
6.07694e-08 4.54578e-08 -2.09293e-09
-6.58437e-08 -9.10314e-09 -1.03152e-09
-6.18138e-08 -1.14999e-08 2.79556e-10
8.03337e-08 3.74119e-08 -6.26385e-09
7.56819e-08 4.0122e-08 -7.08074e-09
-4.79947e-08 3.34242e-08 3.27056e-08
-4.80518e-08 2.92478e-08 3.14782e-08
-4.07155e-08 2.11672e-08 -7.54886e-09
-5.00061e-08 2.06752e-08 -7.11414e-09
9.16814e-08 2.36594e-08 -5.36779e-09
8.78979e-08 2.5387e-08 -3.03067e-09
-2.86303e-08 4.96545e-08 1.82526e-08
-2.17306e-08 5.90333e-08 1.82826e-08
-5.41192e-08 2.636e-08 3.06941e-08
4.68581e-08 3.2822e-08 4.09149e-09
-6.02099e-08 2.23005e-08 2.63813e-08
-5.18975e-08 1.69603e-08 -4.24757e-09
-4.15711e-08 2.39839e-08 -6.87778e-09
-3.05895e-08 2.99786e-08 -7.26516e-09
4.44469e-08 1.51361e-08 1.46143e-08
3.13061e-08 7.62503e-09 7.40406e-09
-3.0017e-08 2.86116e-08 -8.45649e-09
-2.10969e-08 2.89246e-08 -8.55417e-09
-4.7473e-08 -1.74711e-08 8.34512e-10
-4.70029e-08 -1.59382e-08 -1.14364e-10
6.7048e-08 -2.55378e-08 -1.44494e-08
6.55701e-08 -2.4487e-08 -1.07517e-08
-1.93815e-08 3.28674e-08 -8.32041e-09
-5.23692e-09 4.1836e-08 -3.65701e-09
-1.52519e-08 3.8829e-08 -4.01974e-09
7.67646e-08 3.95924e-08 -7.54225e-09
8.21548e-08 3.64464e-08 -7.21506e-09
-3.47281e-08 2.76013e-08 -9.33906e-09
-4.00867e-08 2.35966e-08 -8.28045e-09
9.68433e-09 3.93263e-08 -1.41289e-09
8.48295e-09 4.19876e-08 -8.68045e-10
-1.46661e-09 3.74151e-08 -3.83152e-09
-3.03793e-08 2.59886e-08 -9.01593e-09
-3.00914e-08 2.93998e-08 -9.52395e-09
9.80505e-09 3.68632e-08 -2.91531e-09
7.49387e-08 3.16871e-08 -9.40322e-11
7.58559e-08 3.01021e-08 -1.09633e-09
-3.25136e-08 2.27973e-09 3.51887e-09
-3.49402e-08 5.25692e-09 4.66021e-09
-4.9482e-08 2.2016e-08 9.71445e-09
2.57899e-08 3.46896e-08 1.14343e-08
1.24228e-08 3.81997e-08 9.25999e-09
-5.01698e-08 2.07187e-08 5.51776e-09
-5.22963e-08 1.94195e-08 1.14269e-08
1.94961e-08 -3.22705e-08 2.82357e-09
1.89454e-08 -3.45655e-08 3.79612e-09
7.28997e-08 -1.74336e-08 -8.57457e-09
7.25651e-08 -1.96921e-08 -9.57284e-09
1.28233e-09 4.11742e-08 -2.00455e-09
1.24712e-08 4.33064e-08 -8.21888e-10
8.41914e-08 2.15502e-08 -5.65541e-10
7.78596e-08 2.38688e-08 3.82422e-09
7.95477e-08 3.69251e-08 -5.33769e-09
7.67788e-08 3.93122e-08 -4.38854e-09
-3.99336e-08 1.59501e-09 -2.63641e-09
-7.31442e-08 3.05134e-09 1.06255e-08
-7.13769e-08 2.03364e-09 9.64758e-09
-2.78067e-08 -2.95357e-08 8.61686e-11
-2.69588e-08 -2.7579e-08 -4.56089e-10
9.13492e-09 4.06751e-08 -1.58909e-09
7.37509e-09 3.79626e-08 -6.88322e-10
6.79905e-08 4.02914e-08 9.89385e-11
7.15203e-08 3.73707e-08 1.19986e-09
-6.34811e-08 2.87826e-08 3.59956e-08
-6.64612e-08 2.41701e-08 3.18389e-08
5.84911e-08 4.10359e-08 1.00729e-09
6.19061e-08 3.87856e-08 2.00561e-09
-5.52669e-08 -3.02083e-08 1.35528e-09
-5.30248e-08 -3.25782e-08 6.38661e-10
8.63634e-08 2.2429e-08 2.23069e-09
3.96565e-08 5.59164e-08 2.82614e-09
-2.26835e-08 3.97131e-08 -3.27382e-09
4.68034e-08 5.46268e-08 3.0429e-09
-5.50039e-08 -1.82425e-08 1.40905e-09
-6.156e-08 -1.59743e-08 3.10759e-10
6.56227e-08 4.45883e-08 -6.68605e-10
5.35781e-08 2.84598e-08 2.67463e-09
6.92209e-08 4.15826e-08 -1.07242e-09
1.59221e-08 6.19203e-08 1.39088e-08
3.29708e-08 3.62987e-08 -1.34543e-08
4.84757e-08 5.08484e-08 -2.26179e-08
1.52935e-07 -1.01335e-08 -1.95668e-08
3.66188e-08 6.53184e-08 5.79463e-09
2.39648e-08 6.39681e-08 1.10858e-08
-5.82802e-08 2.59012e-08 -1.28207e-08
-8.52858e-08 9.04553e-09 1.88725e-08
-8.71596e-08 6.47131e-09 1.50767e-08
-5.71646e-08 2.76928e-08 -1.17608e-08
5.75069e-08 4.93655e-08 2.9897e-10
2.88367e-08 6.06839e-08 4.70897e-09
5.3006e-08 5.06732e-08 1.9246e-09
1.359e-10 -2.42293e-08 -5.51779e-11
-5.76331e-08 3.36936e-08 2.73905e-08
-5.04371e-08 2.25446e-08 -8.65998e-09
-4.16598e-08 2.81396e-08 -8.07315e-09
-5.17931e-08 3.64395e-08 2.50304e-08
7.24488e-08 7.8381e-08 -2.1587e-08
7.25957e-08 6.40639e-08 -1.52522e-08
2.66916e-08 -4.47257e-08 -3.21679e-09
3.21679e-08 -3.98332e-08 -1.51291e-09
3.67861e-08 -3.81804e-08 -3.79212e-09
-6.17718e-08 3.57957e-08 3.29735e-08
2.55855e-08 7.09093e-08 -2.25496e-09
-3.63684e-08 1.77472e-08 -3.73804e-09
-6.5598e-08 1.95629e-08 1.95623e-08
1.20294e-07 1.77914e-08 -1.00856e-08
1.23176e-07 1.63438e-08 -6.78903e-09
-6.16261e-08 3.14606e-08 3.09397e-08
-8.03738e-08 1.24122e-09 1.03604e-08
-8.1231e-08 3.01904e-09 1.15094e-08
-7.84561e-08 6.10586e-09 1.41457e-08
-4.18918e-08 2.76069e-08 1.79118e-08
-4.27328e-08 3.07407e-08 1.62482e-08
7.46883e-08 -2.32275e-08 7.12473e-09
8.60694e-08 -1.81248e-08 2.83376e-09
1.36709e-07 5.01058e-09 1.49324e-08
1.11508e-07 1.6939e-08 -6.03959e-09
1.13972e-07 1.63473e-08 -3.03031e-09
2.77443e-08 5.54533e-08 1.09219e-08
-5.1144e-08 2.4311e-08 -8.77742e-09
1.57632e-08 5.68319e-08 1.4806e-08
1.13142e-08 5.53944e-08 1.72078e-08
-3.47571e-08 3.36724e-08 -8.21982e-09
-2.99824e-08 3.80831e-08 -7.11053e-09
-3.38507e-08 3.76809e-08 -9.96078e-09
6.77263e-08 2.52388e-08 3.90502e-09
-5.86895e-08 1.64523e-09 7.33504e-09
-5.82366e-08 4.86683e-09 8.80359e-09
8.54512e-09 1.37483e-09 -8.61118e-10
7.47017e-08 -2.50943e-08 -1.6399e-08
7.80534e-08 -2.2886e-08 -1.28982e-08
-7.50836e-08 1.75317e-08 2.29038e-08
-7.48594e-08 1.93406e-08 2.38547e-08
7.02507e-08 2.45428e-08 5.3982e-09
7.27273e-08 2.71522e-08 6.94522e-09
-3.55137e-08 4.13557e-08 1.35687e-08
-3.20578e-08 4.61769e-08 9.62255e-09
-3.9354e-08 3.68272e-08 9.94581e-09
7.2691e-08 2.58615e-08 2.75449e-09
7.46169e-08 2.66365e-08 4.134e-09
6.96905e-08 2.70232e-08 1.62487e-09
3.23336e-09 6.81687e-08 1.79709e-08
4.35338e-09 7.23876e-08 1.84102e-08
-7.99519e-08 5.06501e-09 -5.97742e-09
-7.80764e-08 2.0919e-09 -4.67408e-09
-7.96287e-08 2.58119e-09 -4.67752e-09
-7.04656e-08 -1.40999e-08 1.21754e-09
-6.95524e-08 -1.42932e-08 4.62928e-11
-7.31262e-08 -1.50738e-08 3.66785e-11
-7.46567e-08 -1.56177e-08 1.08291e-09
-7.01794e-08 -1.71774e-08 1.20481e-09
-6.938e-08 -1.76331e-08 4.48968e-10
6.89361e-09 -3.84408e-08 -7.95741e-10
8.21834e-09 -3.54321e-08 7.13944e-10
-6.70819e-08 -1.6228e-08 9.04514e-10
1.73177e-07 -5.23251e-09 -7.96499e-09
1.73366e-07 -3.82396e-09 -9.08534e-09
1.68963e-07 -3.688e-09 -9.83004e-09
-4.13899e-08 2.53168e-08 -9.25454e-09
-3.04844e-08 2.59949e-08 -9.19516e-09
1.41704e-07 7.04293e-09 1.03829e-08
4.54539e-08 5.80682e-08 -2.54917e-10
1.27669e-07 9.13822e-09 1.19339e-08
-2.79914e-08 -1.95816e-08 -1.01243e-09
-2.6227e-08 -2.19184e-08 -1.40673e-09
1.27991e-07 9.35901e-09 1.62287e-08
-4.81509e-08 2.40676e-08 2.12205e-08
-4.80558e-08 2.42058e-08 2.49493e-08
-4.73283e-08 2.18409e-08 2.14275e-08
1.30805e-07 2.33853e-08 -1.62924e-08
-2.12232e-08 5.95296e-08 2.3335e-08
1.23859e-07 2.73899e-08 -1.84149e-08
1.21659e-07 2.74755e-08 -1.48339e-08
9.64994e-08 5.38778e-08 -4.83001e-08
6.09242e-08 4.2348e-08 -2.73528e-08
7.51256e-08 3.61983e-08 -2.99228e-08
3.90598e-08 6.08384e-08 1.475e-09
3.53761e-08 5.83574e-08 6.3711e-09
-3.79876e-08 2.66592e-08 -8.77296e-09
-2.68006e-08 3.29625e-08 -1.03598e-08
-4.18421e-08 8.27372e-09 -3.73686e-09
-2.1557e-08 3.3436e-08 -8.29163e-09
-8.19445e-08 8.45355e-09 8.39777e-11
-8.13645e-08 8.5856e-09 -3.10536e-09
2.09062e-08 4.86586e-09 -2.86233e-09
-7.85483e-08 1.13323e-08 -4.69429e-09
-8.9286e-08 -1.73739e-09 6.8679e-09
-8.75243e-08 5.66593e-11 9.75849e-09
1.31237e-07 1.15094e-08 -3.9996e-09
1.2787e-07 1.26205e-08 -6.23238e-09
8.68166e-08 3.94469e-08 4.11215e-08
8.66374e-08 4.15386e-08 4.55961e-08
9.70113e-08 3.31847e-08 4.28261e-08
1.59332e-07 3.34795e-08 -4.15175e-08
9.7736e-08 -1.90428e-08 8.12728e-10
1.62649e-07 3.19849e-08 -5.20104e-08
-4.40169e-08 3.35029e-08 3.05181e-08
1.53505e-07 4.01869e-08 -5.51697e-08
4.99315e-08 3.79085e-08 1.87315e-08
4.72571e-08 4.3853e-08 2.40948e-08
-3.51373e-08 1.633e-08 -3.67869e-09
6.36512e-08 -2.32521e-08 -4.90648e-09
6.24927e-08 -2.47198e-08 -2.40075e-09
5.16718e-09 3.42916e-08 -2.46284e-09
-6.3573e-08 1.64268e-09 -4.2164e-09
-8.45636e-08 -1.03034e-08 1.37014e-09
-6.4544e-08 2.90617e-09 -4.27131e-09
-2.43319e-08 1.55325e-09 2.43747e-09
-8.92548e-09 -4.18686e-08 -5.35641e-09
-7.23341e-09 -4.36456e-08 -5.41864e-09
-1.0239e-08 -4.30948e-08 -3.18214e-09
1.0872e-07 2.19262e-08 3.76253e-08
1.04603e-07 2.87436e-08 5.03254e-08
6.63853e-08 2.02991e-08 3.00707e-08
-3.63421e-09 6.4449e-08 2.43451e-08
2.04913e-08 -1.43473e-08 4.51553e-10
2.24e-08 -1.08011e-08 2.66545e-10
-4.34517e-09 5.76433e-08 2.27381e-08
-2.07429e-08 6.31867e-08 2.3629e-08
7.47881e-09 -5.08048e-08 -5.13886e-09
1.5092e-08 -4.66491e-08 -7.57252e-09
-1.46644e-08 6.33586e-08 1.8639e-08
-3.83252e-08 2.56449e-08 -8.57657e-09
-3.92789e-08 2.2259e-08 -7.81817e-09
-8.43284e-08 4.67209e-09 1.4141e-08
-8.41399e-08 7.24827e-09 1.66598e-08
-8.52935e-08 4.50338e-09 1.35663e-08
3.14495e-08 -3.48504e-08 -1.50391e-08
2.95636e-08 -3.58169e-08 -1.33586e-08
1.92953e-08 -3.64954e-08 -1.23978e-08
-6.46874e-08 -5.16184e-09 4.09699e-09
-6.37118e-08 -5.97121e-09 4.2327e-09
1.82554e-07 1.19644e-09 3.62282e-08
-6.24423e-08 -1.83457e-08 -1.13695e-09
-6.9249e-08 -1.71901e-08 -6.15173e-10
-6.4577e-08 -1.69022e-08 -3.40156e-10
-6.17923e-08 -1.93341e-08 6.39512e-10
-5.88209e-08 -2.1839e-08 1.48798e-09
1.84776e-07 1.80985e-08 -4.19435e-08
1.65993e-07 3.05327e-08 -4.56136e-08
1.78156e-07 2.12635e-08 -3.94347e-08
9.60197e-08 -2.33953e-08 7.85661e-09
1.09132e-07 -1.91752e-08 2.52927e-09
1.10932e-07 -2.12309e-08 6.44824e-09
1.4958e-07 4.43077e-08 -5.02723e-08
1.46278e-07 4.63301e-08 -5.86824e-08
4.9937e-08 5.55477e-08 -3.37363e-09
2.19459e-07 -1.17502e-08 2.94954e-08
1.139e-07 2.49025e-08 -1.01435e-08
1.11431e-07 2.38755e-08 -1.07245e-08
1.07548e-07 2.55232e-08 -1.00365e-08
4.49231e-08 -2.92219e-08 1.01418e-09
4.39183e-08 -3.2368e-08 5.21085e-10
4.31167e-08 -3.14601e-08 -1.34751e-09
1.1571e-07 2.06313e-08 -1.15023e-08
-2.27082e-08 6.13975e-09 2.95511e-09
1.11945e-07 2.08094e-08 -8.06752e-09
7.58519e-08 -9.70547e-09 -1.67585e-09
7.69972e-08 -1.29221e-08 -2.371e-10
1.32611e-07 2.61484e-08 -1.87347e-08
1.73565e-07 3.82254e-09 5.31656e-08
1.34517e-07 2.6869e-08 -2.33932e-08
1.88964e-08 4.83038e-08 1.14434e-08
-1.32001e-08 5.12526e-08 2.15956e-08
8.03244e-08 2.5812e-08 5.59002e-10
-3.67937e-08 -4.18149e-08 -3.36868e-09
-2.32395e-08 -4.44609e-08 -3.32218e-09
-4.47317e-08 4.5763e-08 2.72106e-08
-2.9967e-08 -4.62202e-08 -4.53889e-09
-8.87458e-08 -4.90403e-09 4.23658e-09
-8.95341e-08 -3.89853e-09 4.8753e-09
-8.98803e-08 -3.57333e-09 4.07113e-09
-5.06055e-08 2.1493e-08 1.95108e-08
-8.85645e-09 3.84858e-08 -5.09489e-09
4.61879e-09 3.69514e-08 -3.08497e-09
-4.95944e-08 2.04492e-08 1.43438e-08
7.74188e-09 -2.77387e-08 1.04948e-09
-2.11062e-08 4.50372e-08 2.25333e-08
-7.03801e-08 -6.64162e-09 4.126e-09
-1.48164e-08 4.26256e-08 -5.10722e-09
-6.64866e-08 -9.22063e-09 2.54414e-09
-6.75773e-08 -8.44736e-09 2.24158e-09
1.29294e-07 4.42536e-08 -5.43855e-08
8.13885e-08 -6.05842e-09 5.27975e-09
8.03854e-08 3.56087e-09 1.68157e-08
1.30022e-07 4.4627e-08 -4.93559e-08
-3.86572e-08 -6.2895e-09 -1.89568e-09
1.22052e-07 4.03763e-08 -4.59061e-08
-5.61096e-08 -2.49174e-08 -2.56335e-09
-3.20882e-08 -1.50806e-08 -9.05119e-10
-8.11593e-08 -9.8784e-09 7.28641e-11
-8.05056e-08 -1.06977e-08 4.14365e-10
-4.85654e-08 -2.77945e-08 -3.62652e-09
-5.48227e-08 -2.63092e-08 -1.7584e-09
4.65877e-08 5.16083e-08 9.84874e-10
4.52776e-08 5.14333e-08 3.6871e-10
-4.64261e-08 2.49053e-08 8.1016e-09
-4.60417e-08 2.28533e-08 4.93693e-09
-4.35622e-08 2.73138e-08 3.31413e-09
1.75701e-07 1.70403e-08 -2.60846e-08
1.49977e-07 2.08446e-08 -1.79729e-08
1.57855e-07 2.63002e-08 -3.36767e-08
1.52058e-07 3.06692e-08 -3.33062e-08
-8.37997e-08 6.93165e-09 -5.02599e-09
-8.0197e-08 9.73235e-09 -6.51485e-09
-8.45411e-08 8.34834e-09 -5.57525e-09
2.65176e-08 6.04656e-08 1.07895e-08
-5.06763e-08 2.53178e-08 2.67938e-08
1.77463e-08 5.67307e-08 1.44358e-08
-2.78212e-08 1.4037e-08 -2.00952e-09
1.11895e-07 1.81453e-08 2.25812e-08
-6.13758e-08 6.93353e-09 -5.67535e-09
-6.25622e-08 8.18082e-09 -5.89096e-09
-8.25941e-08 1.23305e-08 2.23161e-08
1.31192e-07 1.43741e-08 -7.54438e-09
-8.30478e-08 1.19119e-08 2.05025e-08
8.91381e-08 2.33314e-08 1.76517e-08
1.12603e-07 1.49707e-08 1.451e-08
2.09378e-07 3.5791e-10 -3.31784e-08
2.12465e-07 1.35002e-09 -3.60071e-08
1.03455e-07 1.96524e-08 1.70678e-08
-5.22622e-08 1.87358e-08 1.58322e-08
-5.62156e-08 1.80392e-08 1.27342e-08
-5.2285e-08 1.7661e-08 7.13572e-09
-6.71191e-08 1.35575e-08 -3.77975e-09
-8.31824e-08 -7.95993e-09 1.53376e-10
-8.33427e-08 -4.73484e-09 -1.52942e-09
-8.46618e-08 -6.79239e-09 7.45239e-11
-8.54351e-08 -5.7442e-09 -1.63888e-10
1.40592e-07 1.89107e-08 -1.77425e-08
1.44773e-07 1.90764e-08 -1.77462e-08
6.66783e-08 -2.32373e-08 -1.05435e-09
6.36796e-08 -2.27566e-08 -2.99005e-10
1.4386e-07 1.75293e-08 -2.03152e-08
1.55173e-07 1.64686e-08 4.89988e-08
7.16249e-08 5.42387e-08 -1.20776e-08
6.83652e-08 5.47246e-08 -8.4656e-09
1.77274e-07 6.25897e-09 3.92643e-08
1.83203e-07 5.24366e-10 3.75695e-08
-1.40941e-08 5.24071e-08 1.82011e-08
8.18353e-08 3.17756e-08 -2.39227e-09
4.62607e-08 4.80956e-08 2.28713e-09
7.07906e-08 3.46745e-08 1.78861e-09
9.71693e-08 2.45573e-08 2.23412e-08
1.0211e-07 2.82137e-08 2.28272e-08
9.39496e-08 -2.07959e-08 4.61465e-09
8.20453e-08 -2.35676e-08 8.15594e-09
-4.91701e-09 -3.68006e-08 -3.97242e-10
-4.74333e-09 -4.06757e-08 -6.12375e-10
-7.68815e-09 -3.98803e-08 -2.78238e-09
5.20536e-08 4.97042e-08 3.69563e-09
5.84129e-08 4.57519e-08 1.77364e-09
3.29652e-08 1.08419e-09 4.09479e-09
-3.81691e-08 5.27701e-08 2.86445e-08
3.7654e-08 -4.10791e-09 1.63511e-09
-6.57061e-08 5.8602e-09 1.09174e-08
-6.73926e-08 6.78052e-09 1.1664e-08
-3.00399e-08 5.36964e-08 2.38841e-08
-7.43235e-09 -3.19876e-08 -4.5599e-09
7.69761e-08 3.56969e-08 -2.18519e-09
9.1206e-09 -4.35839e-08 -8.8561e-09
9.396e-09 -4.31769e-08 -7.49898e-09
-5.257e-08 -3.44058e-08 -1.83943e-09
6.9996e-08 2.61036e-08 1.00914e-08
7.59717e-08 3.00573e-08 1.67465e-08
-1.39347e-08 6.44125e-08 1.77888e-08
7.18701e-08 3.28189e-08 1.56793e-08
3.06086e-09 7.07586e-08 1.46606e-08
1.00357e-07 6.7906e-08 -4.19435e-08
1.54133e-07 2.83656e-08 -5.33658e-08
1.5596e-07 2.94589e-08 -4.79724e-08
9.70382e-08 6.38023e-08 -3.58609e-08
1.00474e-07 6.84187e-08 -3.58037e-08
-3.2105e-08 4.06472e-08 3.19084e-08
-2.79287e-08 4.67531e-08 3.25071e-08
4.1532e-08 -3.09765e-08 6.70635e-09
4.97545e-08 -2.69324e-08 5.31041e-09
4.17652e-08 -2.95089e-08 5.19607e-09
-6.88983e-08 1.84703e-08 -9.55835e-09
-6.10338e-08 2.33053e-08 -1.20373e-08
-5.9321e-08 2.50862e-08 -1.12452e-08
2.52925e-07 -2.16879e-08 -5.22212e-09
-5.91305e-06 7.76232e-07 -1.64557e-06
2.08883e-07 -1.47034e-08 -1.33732e-08
1.21331e-07 2.67866e-08 4.96943e-08
9.72559e-08 3.12302e-08 4.18028e-08
1.973e-08 -4.05781e-08 -8.39864e-09
-8.24926e-08 1.10475e-08 1.88662e-08
-3.23074e-08 -3.14594e-08 -3.3617e-09
-8.48789e-08 7.36632e-09 1.62514e-08
-8.1424e-08 1.09384e-08 1.94559e-08
1.47943e-07 4.10633e-09 -1.39762e-09
-2.38322e-08 -2.69612e-08 -3.46634e-09
-2.8074e-08 -2.29665e-08 -2.49326e-09
6.25736e-08 2.88281e-08 6.69348e-09
6.29539e-08 3.2613e-08 1.05654e-08
-2.91841e-08 -2.5079e-08 -3.49078e-09
-4.20153e-08 4.89029e-08 3.72012e-08
-5.10939e-08 3.89417e-08 2.9898e-08
-5.11088e-08 4.1778e-08 3.03129e-08
-3.37443e-08 9.24455e-09 5.37478e-09
-2.54151e-08 9.67773e-09 4.07529e-09
-3.62718e-08 1.19595e-08 6.70592e-09
9.6313e-08 -2.05451e-08 -1.03592e-08
1.1611e-07 1.83163e-08 -7.10831e-09
-3.9585e-08 -2.24323e-08 9.82389e-10
1.10573e-07 1.80053e-08 -4.91803e-09
1.17042e-07 1.71113e-08 -8.60452e-09
-2.88554e-08 3.95169e-08 -8.08304e-09
6.65825e-08 3.12914e-08 1.04149e-09
-3.90609e-08 3.34384e-08 -1.05127e-08
1.48443e-07 7.77438e-10 1.21095e-08
1.59648e-07 -3.7419e-09 6.46101e-09
1.78494e-08 6.55988e-08 1.53512e-08
1.90812e-09 6.77498e-08 1.97067e-08
1.45537e-09 6.51561e-08 1.92117e-08
-7.79404e-08 1.84683e-08 2.63769e-08
-7.70378e-08 1.88338e-08 2.68506e-08
1.60886e-09 6.33299e-08 2.19868e-08
1.00442e-07 -2.21994e-08 6.65847e-09
9.81059e-08 -1.47622e-08 9.90997e-11
9.7377e-08 -1.32457e-08 -3.39714e-10
1.1324e-07 -1.97391e-08 7.25762e-10
9.74724e-08 -1.95506e-08 1.50989e-09
5.25456e-08 3.24651e-09 9.07971e-09
4.95303e-08 -6.20907e-09 1.2864e-09
5.44877e-08 -2.55448e-08 4.77995e-09
-4.86009e-08 -1.38048e-08 -1.6999e-10
4.3178e-08 -2.88202e-08 6.03636e-09
4.95969e-08 -2.95103e-08 7.30033e-09
-4.5789e-08 -3.39497e-08 7.17188e-10
-4.59899e-08 -3.43646e-08 1.52835e-09
-4.78129e-08 -3.19474e-08 1.75921e-09
1.02243e-07 2.07853e-08 1.24204e-08
1.01507e-07 1.73746e-08 5.48723e-09
9.68895e-08 1.90859e-08 5.90055e-09
6.95938e-08 2.96999e-08 2.86886e-09
1.09082e-07 4.20003e-08 -2.07387e-08
-3.9066e-08 2.51399e-08 -9.13327e-09
1.33174e-07 2.32655e-08 -2.05768e-08
1.19424e-07 1.49719e-08 -6.25537e-09
1.0725e-07 3.69165e-08 -1.49911e-08
6.23128e-08 4.54633e-08 9.52945e-10
8.52187e-08 2.63842e-08 -5.14135e-09
-1.51345e-08 5.99671e-08 2.90727e-08
-1.50333e-08 6.28991e-08 2.70486e-08
-4.98864e-08 2.55942e-08 -1.03667e-08
-4.71337e-08 2.52647e-08 -8.84023e-09
-4.79582e-08 3.04022e-08 -1.13291e-08
-5.55729e-08 1.71011e-08 -2.80337e-09
2.78083e-08 5.96966e-08 4.05327e-09
-5.23662e-08 2.08989e-08 2.06865e-08
2.46121e-08 5.87577e-08 7.13566e-09
1.07083e-07 1.89825e-08 -6.42673e-09
1.04214e-07 1.97971e-08 -7.10811e-09
-7.16056e-08 2.57701e-08 3.27716e-08
1.96103e-09 4.74821e-08 5.5642e-09
-6.9771e-08 2.24687e-08 3.04114e-08
-2.84595e-08 5.96434e-08 3.34889e-08
7.88707e-08 2.85619e-08 -3.46241e-10
-4.31189e-08 -4.27194e-08 -1.24106e-09
-4.74991e-08 -3.8741e-08 -1.78969e-09
-4.97524e-08 -3.80701e-08 -1.90375e-09
-7.58937e-08 1.42936e-08 -9.53766e-09
-7.02482e-08 1.71774e-08 -9.8456e-09
-7.69025e-08 1.424e-08 -7.83268e-09
-6.83151e-08 1.91137e-08 2.7197e-08
-6.03369e-08 2.74041e-08 3.4733e-08
-5.86069e-08 2.25847e-08 3.16075e-08
5.97816e-08 3.59249e-08 2.02411e-09
-3.33124e-08 -2.19747e-08 -2.72238e-09
-3.25866e-08 -2.16738e-08 -3.07626e-09
1.08391e-07 2.04974e-08 -7.13401e-09
3.80558e-08 -1.18689e-08 4.46255e-10
3.1195e-08 -1.56141e-08 1.41339e-09
1.01846e-07 2.32598e-08 -7.01905e-09
1.05109e-07 2.22076e-08 -8.84517e-09
2.97026e-08 5.86327e-08 4.34453e-09
2.19475e-08 5.69896e-08 8.40661e-09
2.70785e-08 5.65207e-08 5.43872e-09
-5.41677e-08 2.44227e-08 -1.04951e-08
-5.625e-08 2.60001e-08 -1.20016e-08
-5.47279e-08 2.72556e-08 -1.07944e-08