# vtk DataFile Version 2.0
S, Created by Mohamad Ibrahim Cheikh
ASCII
DATASET UNSTRUCTURED_GRID
POINTS 2818 double
-102.375 -21.4724 -13.8487
-105.478 -18.7157 -14.9539
-61.6158 -28.2539 25.9405
-57.2613 -28.6966 26.6659
-8.69697 5.9643 -43.4875
-8.12587 37.6243 -22.6346
-12.7493 -4.22542 43.5689
11.2408 36.3871 -24.4235
13.2117 38.273 -21.2086
120.506 -10.3956 -7.07325
120.031 -7.94096 -10.4423
124.101 -2.09943 -6.78418
121.933 -3.81622 -10.0595
-0.919683 37.891 -22.3645
2.13978 38.8524 -20.6381
-10.5587 14.864 -41.2482
-6.63492 4.19222 -43.7383
-93.1121 13.1898 26.4684
31.4378 -9.16007 41.6064
-90.8985 15.9963 25.856
-79.6646 -11.0294 32.208
-75.719 -11.3317 33.2514
-79.007 28.1909 -19.4178
-82.9633 26.4476 -19.8455
-22.8261 11.4687 41.7215
-68.6369 -8.33083 35.9141
-72.6255 -8.53158 34.8921
11.4169 7.441 -43.1819
-67.9055 -9.93944 -35.6744
-64.6333 -7.96128 -36.894
-60.8031 -31.1153 -22.6982
-63.6587 -28.9307 -24.5535
-98.5471 5.88829 26.6897
-95.1176 5.45075 28.2598
-46.0093 -15.2631 37.9983
-43.0801 -17.1345 37.619
14.9752 -8.60962 -42.8301
-34.2992 -19.4298 37.6092
-37.8715 -20.0244 36.8704
5.85816 -15.2376 -41.2264
2.26166 -16.3479 -40.8426
-54.5617 -33.4868 21.2171
-50.7206 -32.7882 23.3661
-52.0987 35.0968 -19.2849
-55.7021 33.8264 -20.2955
-65.9498 35.8798 10.7771
-69.4017 34.5582 12.3301
-79.0081 33.6762 6.13755
-77.6721 34.5161 2.45354
-76.6093 12.6094 -32.534
-73.7418 14.4834 -32.5649
-106.827 16.1092 16.7126
3.8353 8.34878 -43.1798
-102.923 18.5879 17.1337
34.2895 -27.9267 -31.8143
36.7083 -25.8675 -33.1949
-88.3079 26.9253 16.0088
-90.7734 25.0373 17.3301
-67.4515 -30.8178 20.7181
-69.5262 -31.9841 17.9221
-68.8269 -25.2636 -26.7914
-69.7663 -28.1416 -23.4123
-74.2685 34.3447 -9.00768
-78.1567 32.9944 -9.97542
-14.7382 -15.0476 41.0241
-17.3894 -12.5039 41.7448
-70.0289 -33.4384 14.7468
-61.724 15.7926 -34.9307
-68.3109 -35.061 11.6371
-66.9556 -30.0377 -22.0198
-83.798 -23.7554 -22.6266
-86.4124 -16.8464 -27.1661
24.8956 25.5238 -34.7657
26.9555 22.5849 -36.5645
-83.1583 -18.279 -27.4815
-66.6866 -15.4845 -33.9377
47.4175 -18.0995 -36.5121
44.0846 -16.2154 -37.883
83.6266 31.388 -9.72558
86.7389 30.9102 -7.70966
-69.3871 -13.1278 -34.2668
-107.528 -2.96664 -22.6189
-107.372 -6.80696 -21.868
-85.2121 25.1357 20.3769
-82.0755 27.4478 18.9176
-84.7647 -20.9301 -24.8649
-79.9518 -24.4002 -23.6224
-69.635 1.39854 -36.6111
-98.4528 2.51876 -27.257
-67.3734 -3.53061 -36.9838
-70.7158 -20.13 -30.3075
-67.8884 -18.3711 -32.1596
-66.2766 -0.222407 -37.392
-93.7296 28 -8.74199
-90.38 28.3515 -11.4941
27.0305 -14.3017 40.5217
23.5245 -15.8654 40.2062
-101.588 -25.6606 -3.74486
1.94767 14.2858 -41.6107
0.776628 11.0491 -42.5892
-98.0566 -26.8477 -6.16609
-95.1918 -28.513 -3.6888
93.1246 8.77749 28.235
89.4402 8.64352 29.6968
42.0422 32.9088 -25.2312
45.7364 32.0507 -25.547
-104.682 -0.140302 -24.3792
-104.654 3.92145 -24.0769
-66.4204 32.3002 -18.7769
-64.3577 30.2409 -22.6802
-92.5215 27.1781 12.2195
-95.9274 25.3723 12.8698
18.7159 -10.3268 -42.2667
15.0069 -36.2848 24.3278
18.9392 -35.0062 25.8196
68.5329 -8.58305 -35.879
72.0181 -8.58564 -35.0327
-42.0026 0.20657 -41.4724
-46.1731 0.962885 -40.9152
-106.657 22.9512 -4.06469
-102.407 25.056 -4.92293
-55.0908 -35.3728 17.6971
-51.8113 -36.8039 15.9003
-108.713 20.0461 -9.33875
-104.968 21.8889 -10.3875
99.5151 -23.6136 -12.8816
103.272 -21.5838 -12.8223
-62.7018 32.574 -19.8393
-120.797 11.2455 4.80005
-113.362 -8.6687 -16.9557
-119.553 13.3972 2.57274
55.1516 -23.4916 -31.808
53.1903 -26.4599 -29.8243
-109.176 20.7298 6.85326
-65.4248 18.7818 -32.5453
-106.01 22.7212 6.62349
-65.1275 -5.1708 37.2822
13.2044 14.6289 41.2389
10.3632 17.8073 40.0718
40.3044 38.7731 15.2895
-56.6667 1.61318 39.2461
-57.0956 -2.97114 39.0904
-30.275 -24.731 -34.8161
-17.2705 -41.959 11.7867
-14.2946 -42.6544 9.56996
-27.834 -21.8784 -36.9119
-114.732 17.3024 5.00094
-123.218 7.92685 3.7876
-117.016 15.8394 2.94909
56.1785 -0.455074 39.3624
-22.5764 -29.3532 31.8117
-10.7662 -17.6561 -40.1257
-15.1399 -13.94 -41.3958
-17.482 -25.9455 35.0059
-15.3055 14.6888 41.1286
-19.7766 13.9097 41.166
123.372 7.97145 2.99581
120.991 11.0256 4.71268
119.834 13.166 2.12907
-35.6207 -31.7221 27.8274
-15.5792 3.38089 43.5299
1.58637 -8.21095 -43.2235
-2.40539 -31.0087 31.205
-46.3581 40.8951 0.694237
-42.264 41.4388 0.368732
-30.7703 -32.8115 27.2669
12.5277 -39.8339 18.1671
7.91534 -39.7367 18.6901
5.2912 -38.4061 21.3903
-106.188 -22.8027 5.9605
-109.732 -20.7839 5.46277
48.0309 27.2211 30.2087
46.2418 30.011 27.8127
9.08666 38.9139 -20.2878
-50.6427 38.7263 -11.0579
-46.3126 39.4953 -10.655
-86.3807 0.0207217 31.9761
-14.3781 -17.4466 -40.0787
-88.163 -4.05611 31.1116
-91.0888 -5.91236 29.7526
-38.5045 -13.8435 -39.5328
-31.8654 -10.0624 -41.3574
-34.476 -13.6198 -40.0622
-53.1531 23.2454 -32.3999
24.7273 -29.0935 31.8545
20.7014 -27.9328 33.2158
28.9498 4.84137 42.5435
78.697 33.2074 -8.66195
76.3145 34.3715 -6.4482
-19.1537 -37.4281 22.141
-16.0111 -36.1807 24.4044
-49.8095 25.2072 -31.5729
-46.5721 24.4901 -32.7214
-120.322 -12.5772 2.31328
-122.722 -9.59685 0.092121
-118.58 -14.6356 -0.519598
-72.5748 28.1798 -22.2945
-68.5955 28.0896 -23.8934
-76.3195 26.2793 -23.0712
-42.1155 -9.11195 40.4452
-38.6549 -8.74131 40.947
-2.26842 -34.1883 -27.6863
5.38341 -33.263 -28.7407
2.20422 -34.888 -26.7998
48.2031 -32.5875 -24.2813
52.4513 -32.2953 -23.5837
56.4744 -34.6063 -18.6528
57.564 -35.8141 -15.7373
60.0803 -32.4392 -21.0182
63.8131 -32.1432 -20.1063
108.843 1.26563 21.9996
105.136 2.85715 23.9694
55.7198 -30.471 -25.0482
10.2414 42.887 -9.15753
8.74407 43.5869 -5.17892
6.7896 43.1462 -8.29233
-65.2841 -23.2919 -29.5244
-64.3918 -20.0627 -32.029
-3.74151 40.5691 -16.9833
-80.9005 8.97476 32.4678
-4.84855 38.9835 -20.3324
48.2892 -6.81083 -40.0515
51.6576 -5.46975 -39.7414
-1.46817 39.677 -19.0123
-91.5624 -28.9506 8.45264
-85.0716 -30.5999 10.6582
-87.689 -30.4325 8.27339
-30.9574 37.5167 20.2771
-32.333 -15.643 39.5387
-34.4512 35.9681 22.2932
-38.3693 35.0146 23.016
14.8102 28.5094 33.1113
15.9782 22.5794 37.3485
17.5686 25.9177 35.0212
-76.1099 6.25182 34.4632
-74.7515 2.77105 35.2733
-56.0336 -20.3139 -33.7482
-57.6393 -16.2929 -35.5499
12.0655 -11.0515 -42.3797
-54.7893 -13.0113 -37.4057
-34.9621 -39.5882 -14.8028
-30.7487 -39.6432 -15.7689
27.0601 10.6229 41.6354
-38.0238 -38.1557 -17.4106
8.49482 -43.6067 5.0621
5.50602 -43.2005 8.12409
-29.5542 42.1938 -6.98199
-34.0708 41.7593 -7.0738
9.15692 31.3599 -30.6967
12.6922 31.8291 -30.053
14.9019 33.3497 -28.2242
3.57256 34.6058 27.1454
59.3043 36.4157 13.3906
9.05348 36.8217 23.8773
-78.774 -28.6484 18.856
6.53502 35.5556 25.818
0.223975 20.2606 -39.0576
3.40603 21.7185 -38.2477
5.9308 -7.71625 -43.2684
92.5447 29.6908 2.42899
95.4525 28.386 3.8404
9.0551 3.60134 43.7378
13.6444 -23.9381 -36.6084
39.1207 -41.5667 -4.56525
9.31925 -24.7457 -36.2356
27.9242 -10.7977 41.5204
108.974 -0.793973 -21.9423
114.964 -0.907027 -17.8055
111.819 -2.54969 -19.9676
21.2914 34.6679 -26.0506
24.8102 35.3411 -24.7315
26.0672 32.764 -27.9165
-64.3991 -12.5997 35.63
41.6094 8.24365 40.6949
38.5499 10.499 40.5441
-68.2074 -13.0898 34.5699
-28.4314 -14.8461 40.2073
124.53 1.92319 -5.80353
122.668 5.31425 -8.09305
-26.6335 -11.6617 41.3903
-77.4999 -22.469 -26.378
-74.2147 -24.5512 -25.6693
1.02272 -41.112 15.6739
-5.97407 -41.1411 15.461
-2.39917 -41.8837 13.4555
81.8622 19.8378 -26.8702
78.3965 18.0585 -29.2819
78.0131 14.8791 -31.1367
34.0619 -33.124 26.3962
38.0723 -32.5079 26.491
26.7056 40.2383 -15.1513
71.0715 -31.4888 18.0567
67.9599 -34.8431 12.5102
68.2286 -33.048 16.5499
66.483 -27.6081 -25.1526
69.7472 -25.5124 -26.259
6.40947 39.9909 18.2125
2.87026 37.0517 23.7099
6.14878 38.3122 21.5302
49.0309 31.7847 25.1278
47.3811 34.2344 22.1168
43.7256 33.579 23.966
7.27804 32.8558 29.155
9.99726 34.083 27.6064
-77.565 11.5792 32.6396
33.1233 41.3216 -9.70578
-51.171 36.83 16.0926
-53.1214 37.7456 12.8757
-57.8525 36.6471 13.536
108.054 20.0348 10.2535
111.213 17.9412 9.99205
112.888 17.9481 7.32523
-50.2048 39.8433 6.31863
24.4103 -8.96537 42.2217
-54.1718 39.3702 5.16753
35.5811 26.8998 32.5178
39.7362 27.1397 31.7194
-21.9715 34.5476 26.1411
30.3052 40.7047 -12.9108
-18.2709 35.4761 25.2304
-11.5407 11.5145 -42.2742
-114.119 -9.29112 15.976
-75.8994 30.2294 -17.8015
117.723 -14.0065 6.56375
119.603 -9.1987 10.001
-20.8035 -23.1002 36.7341
120.21 -11.0476 6.69188
18.1136 -43.5409 0.145315
14.2529 -43.7108 0.701634
11.779 -43.7484 -2.25674
-92.648 -29.474 4.04745
-51.1107 -6.07049 -39.7407
-49.6844 -2.01478 -40.3697
-95.5651 -28.5671 1.34191
71.8743 3.34417 35.9493
-112.709 -12.8339 14.6978
36.8517 -36.1622 21.4948
-32.3736 -5.67022 -42.1371
44.5866 -34.2156 22.8452
40.3321 -34.6125 23.2126
14.4012 32.9341 28.7394
35.5144 34.2898 -24.6128
31.894 34.6137 -24.766
11.2428 31.8289 30.1238
28.904 -9.79397 -41.6869
17.0748 30.9699 30.6785
91.1132 -27.1946 13.4195
37.337 -7.65284 -41.3129
36.1837 -38.1128 -17.9757
39.657 -38.6247 -15.8614
96.6111 -23.3777 15.7084
94.8329 -25.7596 13.0916
-104.76 12.15 21.0891
-108.519 12.5297 18.3637
-107.509 -22.1876 -5.35122
-104.166 -23.6202 -7.04649
-109.819 -19.9128 -7.93307
-0.579548 38.4258 21.4339
-10.9837 35.198 26.1214
-3.6811 36.7923 24.0971
-7.13462 35.3796 26.0395
-18.2193 -38.8818 -19.5848
-22.5128 -36.5864 -23.1384
-22.0596 -38.552 -19.7525
-77.9394 -0.868665 34.5186
-78.8489 -31.7738 12.8551
-77.2827 -4.72573 34.3866
7.97963 -3.94909 -43.7334
-4.18646 36.2815 -24.8497
6.72781 -22.3344 -37.8369
3.03902 -22.9496 -37.5258
-24.237 -41.1881 12.9467
-34.1112 42.2767 2.49463
-27.9733 -41.3657 11.3611
-12.9262 30.8411 -31.0543
-8.24592 35.2374 -26.1917
20.8221 41.3387 13.192
24.0175 40.2872 15.5667
-11.2452 33.4913 -28.264
-89.2473 -30.9584 1.55318
-88.3519 -31.2171 -2.40764
-90.8271 -29.7901 -6.20889
-51.3061 -35.4749 -18.8483
28.4483 -38.7278 -18.3596
19.367 -38.2382 -20.6862
24.4611 -39.858 -16.5554
20.5317 -39.6672 -17.6324
-22.772 39.7195 17.1718
-17.9623 38.5528 20.2528
89.5661 30.3905 5.50175
[...]
POINT_DATA 2818
VECTORS F double
-2.76295e-08 1.65109e-08 -5.93904e-10
-2.65526e-08 1.98197e-08 -1.87553e-09
-2.60593e-08 3.30726e-08 2.84438e-08
-2.50518e-08 3.52523e-08 3.13507e-08
1.54576e-08 4.82401e-08 6.23764e-09
1.04939e-07 8.24141e-09 9.08678e-09
7.54085e-09 5.09938e-08 5.21572e-09
1.23804e-07 2.31988e-08 4.15385e-08
1.41636e-07 1.52315e-08 3.82891e-08
-2.87533e-08 -3.99043e-08 -1.32786e-09
-2.27482e-08 -3.91498e-08 -2.24205e-09
-8.20487e-09 -4.37932e-08 -4.82447e-09
-1.30284e-08 -4.28893e-08 -3.06394e-09
1.16283e-07 4.20156e-09 6.53307e-09
1.17873e-07 3.85048e-09 8.74496e-09
5.28448e-08 4.5208e-08 1.46348e-08
1.0733e-08 4.25886e-08 3.88266e-09
4.20338e-08 4.01162e-08 -1.88713e-09
-1.37618e-08 -4.29092e-09 3.28419e-10
4.8341e-08 3.68511e-08 -1.992e-09
7.02872e-09 4.32816e-08 1.69499e-08
8.56197e-09 4.5227e-08 1.77999e-08
6.0838e-08 2.13986e-08 7.6048e-10
5.84971e-08 2.19498e-08 -6.87729e-10
6.64296e-08 5.22701e-08 -9.91874e-09
1.54695e-08 5.02393e-08 1.52734e-08
1.34124e-08 4.62947e-08 1.47376e-08
9.68609e-09 2.71464e-08 4.99132e-09
1.02539e-09 2.36269e-08 -6.82171e-09
1.36986e-09 2.66381e-08 -6.04199e-09
-3.59128e-08 1.25583e-08 -5.43725e-09
-3.31353e-08 1.59763e-08 -8.30671e-09
2.86307e-08 4.12523e-08 3.84151e-09
2.9791e-08 4.23635e-08 4.10522e-09
-2.75258e-09 5.50785e-08 2.17158e-08
-4.34436e-09 5.03844e-08 2.23398e-08
-2.79366e-08 1.33821e-08 -3.88588e-09
-1.55311e-08 4.92662e-08 2.3718e-08
-1.63447e-08 4.6676e-08 2.32945e-08
-3.61298e-08 1.74533e-08 -7.07953e-09
-3.70244e-08 1.73462e-08 -7.19414e-09
-3.99191e-08 2.6643e-08 2.94824e-08
-4.00042e-08 2.9979e-08 3.14361e-08
7.94524e-08 1.40061e-08 -7.89041e-10
7.69858e-08 1.52001e-08 -5.34679e-10
8.36346e-08 2.13338e-08 -8.36602e-09
8.03317e-08 2.29802e-08 -9.0499e-09
7.65878e-08 2.33268e-08 -7.28705e-09
7.79755e-08 2.20525e-08 -8.01468e-09
3.45317e-08 2.43237e-08 -5.2795e-10
3.73469e-08 2.13378e-08 -8.63883e-10
4.7318e-08 3.88386e-08 -4.06314e-10
1.83311e-08 3.52128e-08 7.00774e-09
5.08998e-08 3.67021e-08 -2.38285e-09
-5.43861e-08 -4.78231e-09 -2.97864e-09
-5.13433e-08 -6.55392e-09 -1.84411e-09
6.6461e-08 3.03173e-08 -6.10616e-09
6.28548e-08 3.24223e-08 -6.53396e-09
-3.06175e-08 2.66912e-08 2.74988e-08
-3.06018e-08 2.28903e-08 2.63161e-08
-2.23124e-08 1.56427e-08 -7.73298e-09
-3.04411e-08 1.5359e-08 -7.35572e-09
7.52724e-08 1.82561e-08 -6.37577e-09
7.21278e-08 1.94596e-08 -4.82341e-09
-1.79071e-08 4.13001e-08 1.43612e-08
-1.07541e-08 4.97549e-08 1.43547e-08
-3.54601e-08 2.03659e-08 2.55637e-08
4.38667e-08 2.29329e-08 8.78125e-10
-4.07001e-08 1.7002e-08 2.19743e-08
-3.17907e-08 1.24653e-08 -5.16931e-09
-2.48065e-08 1.65146e-08 -6.09072e-09
-1.66806e-08 2.08295e-08 -6.42079e-09
5.04049e-08 2.91569e-08 2.58252e-08
3.28821e-08 2.18937e-08 1.64909e-08
-1.58688e-08 2.02529e-08 -7.59207e-09
-6.14186e-09 2.12892e-08 -8.23591e-09
-3.97491e-08 -1.19166e-08 -4.12783e-10
-3.88416e-08 -9.88531e-09 -1.30255e-09
5.86176e-08 -2.28269e-08 -1.19621e-08
5.74246e-08 -2.20044e-08 -9.12397e-09
-5.34665e-09 2.38883e-08 -7.82626e-09
-8.71547e-10 3.02037e-08 -3.45425e-09
-8.00815e-09 2.78682e-08 -3.86078e-09
6.40566e-08 3.20124e-08 -6.69281e-09
6.82343e-08 2.9663e-08 -6.79416e-09
-1.97461e-08 1.93783e-08 -8.07035e-09
-2.33887e-08 1.66775e-08 -7.53495e-09
1.67824e-08 2.80405e-08 -2.83688e-09
1.09542e-08 2.91955e-08 -2.14633e-09
8.78735e-09 2.66175e-08 -4.50083e-09
-1.4053e-08 1.90525e-08 -8.6401e-09
-1.33638e-08 2.17287e-08 -8.95859e-09
1.71244e-08 2.62709e-08 -3.87237e-09
6.15552e-08 2.4593e-08 -2.03205e-09
6.22433e-08 2.30489e-08 -3.06838e-09
-2.29439e-08 -8.24978e-10 1.58265e-09
-2.48889e-08 1.67347e-09 2.44327e-09
-3.34695e-08 1.4998e-08 8.38983e-09
4.07971e-08 3.95014e-08 1.37954e-08
2.66191e-08 4.45414e-08 1.1615e-08
-3.36814e-08 1.38846e-08 5.12154e-09
-3.47854e-08 1.29723e-08 9.62963e-09
1.80791e-08 -2.76541e-08 1.29658e-09
1.7699e-08 -2.98301e-08 2.15619e-09
6.86173e-08 -8.50561e-09 2.90436e-09
6.77137e-08 -1.19664e-08 -1.7096e-10
4.28053e-09 3.00777e-08 -2.42347e-09
1.31343e-08 3.16242e-08 -1.83899e-09
6.99785e-08 1.58462e-08 -3.04747e-09
6.53456e-08 1.73337e-08 4.10338e-10
6.5613e-08 2.98239e-08 -5.50993e-09
6.33262e-08 3.16825e-08 -4.67204e-09
-2.98416e-08 8.06365e-09 -3.58793e-09
-5.84936e-08 1.69244e-09 6.94188e-09
-5.71569e-08 9.05363e-10 6.36048e-09
-2.38089e-08 -2.38694e-08 1.42217e-10
-2.31528e-08 -2.26202e-08 -2.83563e-10
2.11139e-08 3.29e-08 -2.4542e-09
1.92693e-08 2.87997e-08 -1.98457e-09
5.59159e-08 3.15667e-08 -1.39222e-09
5.87796e-08 2.92575e-08 -7.91204e-10
-4.43493e-08 2.35685e-08 3.0206e-08
-4.72479e-08 1.95727e-08 2.64551e-08
4.83323e-08 3.17754e-08 -6.76781e-10
5.11431e-08 2.99407e-08 -1.81639e-10
-4.79749e-08 -2.53778e-08 1.14508e-09
-4.61922e-08 -2.73675e-08 5.19237e-10
7.18139e-08 1.63393e-08 -9.60211e-10
3.41374e-08 4.4223e-08 1.57553e-09
-1.46228e-08 2.9304e-08 -3.01246e-09
3.96532e-08 4.30146e-08 1.60495e-09
-4.65425e-08 -1.36702e-08 2.15962e-10
-5.18573e-08 -1.17513e-08 -8.97327e-10
5.41986e-08 3.54999e-08 -1.67204e-09
4.79061e-08 1.95449e-08 -5.11301e-10
5.70666e-08 3.32049e-08 -2.08302e-09
2.16948e-08 4.96153e-08 1.15212e-08
3.58532e-08 2.34684e-08 -9.73051e-09
5.07789e-08 3.48862e-08 -1.71107e-08
1.44196e-07 -1.70612e-08 -3.27126e-09
3.87416e-08 5.21702e-08 4.70415e-09
2.85511e-08 5.14549e-08 9.0165e-09
-3.90005e-08 2.78717e-08 -1.56461e-08
-6.73968e-08 7.13248e-09 1.33002e-08
-6.94941e-08 4.99935e-09 9.57407e-09
-3.86415e-08 3.02538e-08 -1.43645e-08
4.79009e-08 3.91064e-08 -7.55983e-10
2.60324e-08 4.79637e-08 3.30536e-09
4.43602e-08 4.00221e-08 5.4059e-10
4.05084e-09 -2.25928e-08 -9.68985e-10
-4.25434e-08 2.79724e-08 2.21142e-08
-3.42745e-08 2.77004e-08 -1.10629e-08
-2.50249e-08 3.27098e-08 -9.89448e-09
-3.80716e-08 3.02082e-08 2.00618e-08
7.11711e-08 6.0401e-08 -1.83291e-08
7.1968e-08 4.81817e-08 -1.20472e-08
2.14084e-08 -3.90525e-08 -4.02421e-09
2.66844e-08 -3.47337e-08 -2.61261e-09
3.07134e-08 -3.3493e-08 -4.52491e-09
-4.46406e-08 3.01102e-08 2.73284e-08
3.23696e-08 5.77154e-08 -3.06428e-09
-2.35179e-08 2.453e-08 -4.76553e-09
-5.10645e-08 1.54284e-08 1.48494e-08
9.97333e-08 1.40002e-08 -9.34606e-09
1.02304e-07 1.28317e-08 -6.42473e-09
-4.4794e-08 2.59264e-08 2.50096e-08
-6.48368e-08 4.59535e-10 6.48148e-09
-6.55353e-08 1.84955e-09 7.33033e-09
-6.28249e-08 4.38524e-09 9.77637e-09
-2.84061e-08 2.01927e-08 1.52927e-08
-2.94221e-08 2.26868e-08 1.39585e-08
6.93174e-08 -2.43396e-08 8.43918e-09
7.98566e-08 -2.00095e-08 5.33595e-09
1.29818e-07 -2.66931e-09 1.99853e-09
9.17452e-08 1.27063e-08 -6.9427e-09
9.40853e-08 1.22231e-08 -4.76017e-09
2.75725e-08 4.40851e-08 9.09065e-09
-3.48471e-08 2.92616e-08 -1.12073e-08
1.89551e-08 4.48151e-08 1.2419e-08
1.48148e-08 4.36883e-08 1.42346e-08
-1.62523e-08 3.07748e-08 -8.83866e-09
-1.13594e-08 3.62998e-08 -7.76028e-09
-1.57011e-08 3.64522e-08 -1.07383e-08
6.00192e-08 1.73038e-08 3.59681e-10
-4.59294e-08 1.14825e-10 4.4699e-09
-4.55078e-08 2.67271e-09 5.72005e-09
1.37007e-08 -4.43797e-09 -6.36402e-10
6.54959e-08 -2.24631e-08 -1.32646e-08
6.89158e-08 -2.05993e-08 -9.94589e-09
-5.82224e-08 1.3926e-08 1.73745e-08
-5.84116e-08 1.56828e-08 1.85588e-08
6.2481e-08 1.67101e-08 1.27301e-09
6.46788e-08 1.88445e-08 2.83344e-09
-2.57685e-08 3.23133e-08 1.1591e-08
-2.3289e-08 3.65438e-08 8.56416e-09
-2.86089e-08 2.80653e-08 8.82962e-09
6.10485e-08 1.88668e-08 -4.83278e-10
6.27171e-08 1.93204e-08 6.69379e-10
5.83194e-08 1.97237e-08 -1.15305e-09
1.36059e-08 5.57842e-08 1.43023e-08
1.46178e-08 5.98169e-08 1.44592e-08
-6.40303e-08 8.68481e-09 -1.00822e-08
-6.31023e-08 6.02422e-09 -8.41926e-09
-6.40447e-08 5.88608e-09 -8.30744e-09
-5.94517e-08 -1.03636e-08 -5.40776e-10
-5.87613e-08 -1.08717e-08 -1.11259e-09
-6.18844e-08 -1.18767e-08 -9.04527e-10
-6.31899e-08 -1.23926e-08 -9.59755e-11
-5.95305e-08 -1.35638e-08 1.00696e-10
-5.8942e-08 -1.4169e-08 -2.51678e-10
6.3157e-09 -3.27889e-08 -1.93919e-09
7.75466e-09 -2.98178e-08 -6.10029e-10
-5.68113e-08 -1.24019e-08 -3.85586e-10
1.45894e-07 -6.50971e-09 -1.05104e-08
1.46101e-07 -4.71279e-09 -9.4633e-09
1.4246e-07 -4.7132e-09 -1.02427e-08
-2.27922e-08 1.94378e-08 -9.16435e-09
-1.32565e-08 1.97307e-08 -9.09626e-09
1.21544e-07 2.81741e-09 3.45185e-09
4.14614e-08 4.61124e-08 -9.81094e-11
1.12806e-07 4.18618e-09 4.73293e-09
-2.28568e-08 -1.32929e-08 -1.11343e-09
-2.14137e-08 -1.53477e-08 -1.29541e-09
1.14018e-07 3.80403e-09 6.86071e-09
-3.11986e-08 1.73231e-08 1.79563e-08
-3.07249e-08 1.77056e-08 2.08085e-08
-3.03567e-08 1.55895e-08 1.79521e-08
1.10924e-07 1.84239e-08 -1.33545e-08
-8.85495e-09 4.99705e-08 1.88836e-08
1.05171e-07 2.15742e-08 -1.49095e-08
1.02832e-07 2.2016e-08 -1.25052e-08
9.58016e-08 3.32909e-08 -3.39102e-08
6.22166e-08 2.64014e-08 -1.922e-08
7.49855e-08 2.07061e-08 -1.99292e-08
3.75924e-08 4.8005e-08 1.45587e-09
3.54553e-08 4.63449e-08 5.55826e-09
-1.89345e-08 2.1568e-08 -9.13335e-09
-9.6546e-09 2.64476e-08 -1.02047e-08
-3.03025e-08 1.47226e-08 -4.89545e-09
-4.42877e-09 2.64786e-08 -8.41617e-09
-6.17237e-08 8.31922e-09 -4.40055e-09
-6.14675e-08 9.0321e-09 -8.03247e-09
2.46173e-08 -2.67069e-09 -1.27742e-09
-5.83579e-08 1.1062e-08 -8.63896e-09
-7.30343e-08 -1.42941e-09 2.69192e-09
-7.11497e-08 -8.75342e-11 5.43834e-09
1.08797e-07 8.49972e-09 -5.01665e-09
1.05682e-07 9.44927e-09 -6.53602e-09
1.06519e-07 3.29425e-08 3.75445e-08
1.02501e-07 4.58249e-08 5.38329e-08
1.1131e-07 3.73409e-08 5.1317e-08
1.392e-07 1.93258e-08 -2.68801e-08
8.6455e-08 -1.84479e-08 3.29146e-09
1.43128e-07 1.63739e-08 -3.18948e-08
-2.72291e-08 2.59636e-08 2.55201e-08
1.33494e-07 2.44178e-08 -3.77643e-08
6.58072e-08 3.91467e-08 2.03531e-08
6.15478e-08 4.65514e-08 2.71047e-08
-2.24723e-08 2.30455e-08 -4.48694e-09
5.5469e-08 -2.07777e-08 -4.76544e-09
5.44679e-08 -2.20426e-08 -2.8189e-09
1.06357e-08 2.35906e-08 -2.21201e-09
-5.04245e-08 6.86013e-09 -6.78671e-09
-7.06416e-08 -8.08791e-09 -4.72516e-10
-5.12427e-08 7.93654e-09 -7.03343e-09
-1.55895e-08 -1.90467e-09 7.88317e-10
-9.59367e-09 -3.62586e-08 -4.52135e-09
-8.3792e-09 -3.77439e-08 -4.70108e-09
-1.08545e-08 -3.73482e-08 -2.67293e-09
1.22497e-07 3.08129e-08 5.3263e-08
1.15009e-07 3.9601e-08 7.07148e-08
6.66181e-08 3.8085e-08 5.2314e-08
5.94376e-09 5.23646e-08 1.98328e-08
2.35843e-08 -1.67022e-08 4.31108e-10
2.51648e-08 -1.39099e-08 6.72593e-10
5.2932e-09 4.6406e-08 1.885e-08
-8.54634e-09 5.35106e-08 1.90183e-08
3.59286e-09 -4.41841e-08 -5.20416e-09
1.05485e-08 -4.07926e-08 -7.21208e-09
-3.78656e-09 5.36679e-08 1.48226e-08
-2.15325e-08 1.83159e-08 -7.85632e-09
-2.18913e-08 1.60248e-08 -7.57797e-09
-6.80166e-08 3.38476e-09 9.42161e-09
-6.73018e-08 5.54736e-09 1.15774e-08
-6.85855e-08 3.23692e-09 8.57858e-09
2.71076e-08 -3.00985e-08 -1.21103e-08
2.55783e-08 -3.09032e-08 -1.06743e-08
1.66448e-08 -3.1e-08 -9.70793e-09
-5.17661e-08 -5.03614e-09 1.85862e-09
-5.1022e-08 -5.47308e-09 2.26137e-09
1.80605e-07 2.50678e-09 4.56311e-08
-5.16167e-08 -1.49497e-08 -1.19704e-09
-5.76769e-08 -1.4032e-08 -7.21344e-10
-5.32491e-08 -1.37827e-08 -6.45842e-10
-5.26844e-08 -1.55689e-08 3.97312e-11
-5.02932e-08 -1.76544e-08 7.97529e-10
1.54334e-07 7.76595e-09 -2.37021e-08
1.43752e-07 1.74009e-08 -2.93231e-08
1.5481e-07 9.274e-09 -2.19156e-08
8.73395e-08 -2.41342e-08 9.66303e-09
9.98563e-08 -2.05252e-08 5.58003e-09
1.03041e-07 -2.43613e-08 1.11164e-08
1.32609e-07 2.73909e-08 -3.49206e-08
1.327e-07 2.70243e-08 -3.92479e-08
4.51834e-08 4.41189e-08 -2.50567e-09
1.99722e-07 -1.09588e-08 3.67924e-08
9.47578e-08 2.01461e-08 -9.21748e-09
9.25688e-08 1.92566e-08 -9.69379e-09
8.90282e-08 2.068e-08 -9.40339e-09
3.87926e-08 -2.53987e-08 -4.22581e-10
3.77567e-08 -2.81775e-08 -8.55828e-10
3.68828e-08 -2.73771e-08 -2.50955e-09
9.5835e-08 1.64652e-08 -1.05989e-08
-1.41934e-08 1.69314e-09 1.36417e-09
9.26187e-08 1.66467e-08 -7.95489e-09
7.31765e-08 -1.62328e-08 3.62527e-09
7.36555e-08 -1.71787e-08 3.40164e-09
1.15899e-07 2.01056e-08 -1.46448e-08
1.74842e-07 1.76198e-09 5.58008e-08
1.18127e-07 2.02901e-08 -1.80564e-08
3.40376e-08 5.00342e-08 1.24906e-08
-6.50466e-09 4.06533e-08 1.79541e-08
6.6314e-08 1.91972e-08 -2.01649e-09
-3.22341e-08 -3.48167e-08 -3.51475e-09
-2.06972e-08 -3.70995e-08 -3.81904e-09
-3.10779e-08 3.8429e-08 2.20113e-08
-2.68644e-08 -3.85949e-08 -4.63309e-09
-7.30875e-08 -3.71951e-09 8.99949e-10
-7.37514e-08 -2.9244e-09 1.23771e-09
-7.37455e-08 -2.44801e-09 3.30177e-10
-3.32768e-08 1.50418e-08 1.62778e-08
5.51617e-09 3.0213e-08 -5.48369e-09
1.60317e-08 2.87498e-08 -3.85053e-09
-3.30332e-08 1.4108e-08 1.23207e-08
9.61033e-09 -2.43448e-08 -8.77378e-11
-1.28819e-08 3.56446e-08 1.90301e-08
-5.6978e-08 -5.92347e-09 1.99419e-09
1.83971e-09 3.95002e-08 -5.48838e-09
-5.38108e-08 -7.94941e-09 9.51863e-10
-5.46892e-08 -7.51195e-09 4.3261e-10
1.2262e-07 2.7074e-08 -3.85484e-08
8.07669e-08 2.76388e-09 1.81186e-08
8.10213e-08 1.41975e-08 3.26171e-08
1.2342e-07 2.6835e-08 -3.39934e-08
-2.99065e-08 6.02004e-10 -2.68011e-09
1.13792e-07 2.23392e-08 -3.03053e-08
-4.69991e-08 -2.04029e-08 -2.27806e-09
-2.57681e-08 -7.60009e-09 -1.44335e-09
-6.77383e-08 -6.83132e-09 -2.20964e-09
-6.75326e-08 -7.86836e-09 -1.51131e-09
-4.06698e-08 -2.28475e-08 -3.37873e-09
-4.5992e-08 -2.15143e-08 -1.54395e-09
4.01869e-08 4.14145e-08 5.80758e-10
3.90639e-08 4.14297e-08 -5.37028e-12
-3.19979e-08 1.73014e-08 6.96899e-09
-3.12817e-08 1.55038e-08 4.64563e-09
-3.03975e-08 1.92242e-08 3.26413e-09
1.46159e-07 1.09249e-08 -1.9102e-08
1.27584e-07 1.56916e-08 -1.4576e-08
1.35336e-07 1.65979e-08 -2.28112e-08
1.28923e-07 2.05569e-08 -2.36058e-08
-6.52891e-08 8.72394e-09 -9.88374e-09
-6.14803e-08 1.16701e-08 -1.11292e-08
-6.58797e-08 1.00302e-08 -1.05688e-08
2.83768e-08 4.76959e-08 9.04461e-09
-3.26695e-08 1.90345e-08 2.25144e-08
2.19947e-08 4.49735e-08 1.22327e-08
-1.67291e-08 2.12136e-08 -2.28934e-09
1.04166e-07 1.08643e-08 1.37138e-08
-4.74504e-08 1.2283e-08 -8.28332e-09
-4.84624e-08 1.3422e-08 -8.68894e-09
-6.431e-08 9.82298e-09 1.65108e-08
1.09338e-07 1.11926e-08 -6.63869e-09
-6.45933e-08 9.40572e-09 1.47746e-08
8.62196e-08 1.49873e-08 1.04904e-08
1.04174e-07 8.61446e-09 7.5741e-09
1.78152e-07 -5.96501e-09 -1.57344e-08
1.81832e-07 -5.56028e-09 -1.9957e-08
9.61597e-08 1.24578e-08 1.00778e-08
-3.4412e-08 1.28161e-08 1.33664e-08
-3.74138e-08 1.21398e-08 1.06884e-08
-3.45224e-08 1.1624e-08 6.05696e-09
-4.62834e-08 1.14164e-08 -6.06266e-09
-6.90578e-08 -4.94939e-09 -2.66058e-09
-6.85815e-08 -1.81498e-09 -4.50604e-09
-7.01963e-08 -4.15726e-09 -2.68924e-09
-7.0655e-08 -2.95276e-09 -3.42987e-09
1.19451e-07 1.45878e-08 -1.43486e-08
1.24728e-07 1.46003e-08 -1.42493e-08
5.83572e-08 -2.0816e-08 -1.32914e-09
5.58158e-08 -2.03308e-08 -7.39983e-10
1.2258e-07 1.33317e-08 -1.63406e-08
1.4587e-07 1.03768e-08 3.97403e-08
6.38009e-08 4.2654e-08 -9.34333e-09
6.04225e-08 4.34261e-08 -6.76701e-09
1.58647e-07 3.3632e-09 3.45723e-08
1.65821e-07 -2.16653e-09 3.19709e-08
-7.53197e-09 4.21393e-08 1.54886e-08
6.69714e-08 2.47666e-08 -3.90144e-09
3.88466e-08 3.72725e-08 6.87246e-10
5.82477e-08 2.67614e-08 -6.96479e-10
9.49908e-08 1.46245e-08 1.32586e-08
1.09083e-07 2.36462e-08 2.01063e-08
8.48242e-08 -2.10631e-08 6.35866e-09
7.39348e-08 -2.32068e-08 8.81731e-09
-3.62122e-09 -3.08307e-08 -1.49258e-09
-4.11413e-09 -3.41605e-08 -1.74235e-09
-6.38358e-09 -3.36813e-08 -3.58236e-09
4.35819e-08 3.87197e-08 1.70275e-09
4.84155e-08 3.57428e-08 1.55107e-10
3.44027e-08 1.22958e-08 1.13879e-08
-2.44162e-08 4.46821e-08 2.33968e-08
3.75172e-08 8.16665e-09 1.03832e-08
-5.20033e-08 3.78975e-09 7.4321e-09
-5.33252e-08 4.51114e-09 7.90357e-09
-1.7785e-08 4.52737e-08 1.93462e-08
-6.24104e-09 -2.62845e-08 -3.35521e-09
6.30431e-08 2.80447e-08 -3.37733e-09
5.7458e-09 -3.82499e-08 -7.77407e-09
5.9675e-09 -3.79392e-08 -6.72298e-09
-4.52869e-08 -2.86021e-08 -1.7568e-09
6.79551e-08 1.77511e-08 4.9485e-09
7.33543e-08 2.17477e-08 1.11129e-08
-3.03227e-09 5.40723e-08 1.38688e-08
6.939e-08 2.43005e-08 1.06759e-08
1.27182e-08 5.90152e-08 1.11658e-08
9.55608e-08 4.85554e-08 -3.22273e-08
1.42299e-07 1.2966e-08 -3.38187e-08
1.42003e-07 1.47589e-08 -3.12163e-08
9.36517e-08 4.63649e-08 -2.82287e-08
9.42914e-08 4.97546e-08 -2.7947e-08
-1.71326e-08 3.25453e-08 2.67001e-08
-1.35858e-08 3.75618e-08 2.71126e-08
3.79699e-08 -2.76083e-08 5.06069e-09
4.53341e-08 -2.43238e-08 4.07935e-09
3.80719e-08 -2.61495e-08 3.65285e-09
-4.92505e-08 1.9114e-08 -1.24576e-08
-4.13404e-08 2.36154e-08 -1.44395e-08
-3.9827e-08 2.55323e-08 -1.33728e-08
2.05027e-07 -1.9875e-08 -5.8193e-09
-3.09796e-06 4.59948e-07 -8.41336e-07
1.77004e-07 -1.43809e-08 -7.98067e-09
1.2801e-07 3.04128e-08 5.98429e-08
1.12037e-07 4.12219e-08 5.7297e-08
1.5387e-08 -3.60997e-08 -7.55822e-09
-6.51442e-08 8.56636e-09 1.33831e-08
-2.66693e-08 -2.58522e-08 -3.4366e-09
-6.78081e-08 5.60642e-09 1.09706e-08
-6.43218e-08 8.54369e-09 1.40917e-08
1.24511e-07 2.01692e-09 -3.30369e-09
-1.81915e-08 -2.24704e-08 -3.84972e-09
-2.16028e-08 -1.90741e-08 -2.93997e-09
5.87184e-08 1.96716e-08 2.28382e-09
5.93171e-08 2.24266e-08 5.2713e-09
-2.25085e-08 -2.10401e-08 -3.87922e-09
-2.54595e-08 4.09484e-08 3.1312e-08
-3.58834e-08 3.22829e-08 2.42219e-08
-3.61138e-08 3.50615e-08 2.47121e-08
-2.38718e-08 4.78014e-09 3.11262e-09
-1.63842e-08 4.71585e-09 2.18892e-09
-2.60137e-08 7.28277e-09 4.19522e-09
8.47752e-08 -1.85703e-08 -5.83731e-09
9.61672e-08 1.4428e-08 -7.0524e-09
-3.33101e-08 -1.63919e-08 1.83742e-10
9.12701e-08 1.38708e-08 -5.80197e-09
9.65897e-08 1.32325e-08 -8.47193e-09
-1.03585e-08 4.13222e-08 -9.24597e-09
5.51922e-08 2.34806e-08 -1.51689e-09
-2.0597e-08 3.08259e-08 -1.11417e-08
1.33367e-07 -3.62924e-09 2.95527e-09
1.44865e-07 -8.14652e-09 -4.75882e-09
2.34455e-08 5.26252e-08 1.23894e-08
1.09482e-08 5.49658e-08 1.57612e-08
1.01882e-08 5.29926e-08 1.56579e-08
-5.98026e-08 1.49633e-08 2.06167e-08
-5.90233e-08 1.52686e-08 2.09816e-08
1.03389e-08 5.15002e-08 1.78434e-08
8.9016e-08 -2.15709e-08 7.88152e-09
9.21043e-08 -1.84406e-08 4.64383e-09
9.23654e-08 -1.8941e-08 6.0243e-09
1.01183e-07 -1.97251e-08 3.33041e-09
8.64458e-08 -1.9244e-08 3.79907e-09
5.16305e-08 1.76213e-08 2.23208e-08
4.62945e-08 5.41493e-09 1.08659e-08
4.87896e-08 -2.27978e-08 3.48065e-09
-4.011e-08 -8.17414e-09 -1.45864e-09
3.90537e-08 -2.54073e-08 4.32401e-09
4.43535e-08 -2.61187e-08 5.48996e-09
-4.02557e-08 -2.86397e-08 6.30961e-10
-4.04926e-08 -2.90317e-08 1.30965e-09
-4.18434e-08 -2.70001e-08 1.5909e-09
8.86574e-08 1.40075e-08 6.43816e-09
8.75231e-08 1.18344e-08 1.62484e-09
8.34187e-08 1.30939e-08 2.00556e-09
5.78186e-08 2.2348e-08 -2.04177e-10
9.74058e-08 3.22001e-08 -1.59103e-08
-2.14407e-08 1.84762e-08 -8.64642e-09
1.13381e-07 1.79969e-08 -1.63675e-08
9.84825e-08 1.12761e-08 -6.8302e-09
9.57115e-08 2.84189e-08 -1.11332e-08
5.15755e-08 3.60916e-08 -4.05305e-10
6.98089e-08 2.03666e-08 -6.14655e-09
-2.82379e-09 4.97242e-08 2.38846e-08
-2.884e-09 5.18818e-08 2.20859e-08
-3.03395e-08 2.37388e-08 -1.15843e-08
-2.76249e-08 2.19537e-08 -9.67867e-09
-2.8882e-08 2.75032e-08 -1.20153e-08
-3.5438e-08 1.20374e-08 -3.49341e-09
2.53019e-08 4.76079e-08 2.89093e-09
-3.41473e-08 1.50096e-08 1.74133e-08
2.27528e-08 4.6911e-08 5.45295e-09
8.80513e-08 1.45951e-08 -7.02611e-09
8.5706e-08 1.5422e-08 -7.45575e-09
-5.2703e-08 2.14149e-08 2.72805e-08
1.76351e-08 5.10442e-08 6.41854e-09
-5.07409e-08 1.82947e-08 2.50499e-08
-1.37386e-08 4.97629e-08 2.76612e-08
6.48996e-08 2.19206e-08 -2.62016e-09
-3.81915e-08 -3.57017e-08 -1.38251e-09
-4.16235e-08 -3.23841e-08 -1.81695e-09
-4.32966e-08 -3.17264e-08 -1.86316e-09
-5.61554e-08 1.54915e-08 -1.37421e-08
-5.02917e-08 1.75467e-08 -1.29688e-08
-5.6986e-08 1.46788e-08 -1.13643e-08
-4.80896e-08 1.48409e-08 2.3048e-08
-4.10073e-08 2.21615e-08 2.96314e-08
-3.93117e-08 1.76657e-08 2.67419e-08
4.95307e-08 2.72526e-08 -4.94116e-10
-2.57402e-08 -1.8717e-08 -3.30393e-09
-2.51438e-08 -1.83412e-08 -3.6051e-09
8.94045e-08 1.61613e-08 -7.55511e-09
3.88938e-08 -1.54478e-08 1.70555e-09
3.27637e-08 -1.85765e-08 2.03379e-09
8.37505e-08 1.83694e-08 -7.59918e-09
8.65457e-08 1.75812e-08 -8.87424e-09
2.68815e-08 4.68417e-08 3.2501e-09
2.0818e-08 4.59404e-08 6.64381e-09
2.50453e-08 4.5596e-08 4.30991e-09
-3.68403e-08 2.86536e-08 -1.31574e-08
-3.7809e-08 2.93624e-08 -1.48975e-08