# vtk DataFile Version 2.0
S, Created by Mohamad Ibrahim Cheikh
ASCII
DATASET UNSTRUCTURED_GRID
POINTS 2818 double
-102.455 -21.4236 -13.8515
-105.555 -18.6571 -14.9602
-61.689 -28.1579 26.0235
-57.3316 -28.5939 26.7577
-8.64854 6.11116 -43.4683
-7.81467 37.6497 -22.6058
-12.7235 -4.07551 43.5841
11.6086 36.4545 -24.3016
13.6301 38.3175 -21.0956
120.42 -10.5133 -7.07793
119.963 -8.05602 -10.4493
124.077 -2.22883 -6.79816
121.894 -3.94253 -10.0685
-0.574456 37.9042 -22.3434
2.49001 38.8644 -20.6107
-10.3999 15.0006 -41.2037
-6.60046 4.32255 -43.7262
-92.9864 13.3058 26.4644
31.3969 -9.1775 41.6063
-90.7544 16.1028 25.8519
-79.6405 -10.9046 32.2577
-75.6903 -11.201 33.3036
-78.8277 28.2552 -19.4136
-82.791 26.5136 -19.8456
-22.6241 11.6207 41.6928
-68.5875 -8.1854 35.9591
-72.5823 -8.39797 34.9355
11.4484 7.52566 -43.1662
-67.9011 -9.86791 -35.6953
-64.6278 -7.88074 -36.9125
-60.9072 -31.0771 -22.7163
-63.7547 -28.8823 -24.58
-98.4608 6.00758 26.7021
-95.0278 5.57317 28.2729
-46.0128 -15.1022 38.062
-43.0882 -16.9874 37.6846
14.8944 -8.56474 -42.8426
-34.3413 -19.2854 37.6787
-37.9159 -19.888 36.9386
5.75288 -15.1809 -41.2491
2.15376 -16.2917 -40.8658
-54.6765 -33.4092 21.303
-50.8357 -32.7007 23.4579
-51.8641 35.1393 -19.2848
-55.4748 33.8726 -20.2947
-65.7023 35.9419 10.7551
-69.1639 34.6251 12.3061
-78.7816 33.7445 6.11876
-77.4417 34.5809 2.43258
-76.5072 12.6829 -32.5348
-73.6315 14.5482 -32.5666
-106.687 16.2223 16.7132
3.89258 8.45705 -43.1581
-102.772 18.6946 17.1286
34.1296 -27.9363 -31.8269
36.5575 -25.8822 -33.2038
-88.111 27.0134 15.9932
-90.5871 25.1314 17.3132
-67.5385 -30.7405 20.7981
-69.6132 -31.918 17.9985
-68.8909 -25.2163 -26.8159
-69.8542 -28.0953 -23.4359
-74.0464 34.3991 -9.02391
-77.944 33.0523 -9.9872
-14.7889 -14.9268 41.066
-17.4181 -12.3576 41.7869
-70.1305 -33.3796 14.8208
-61.5942 15.8623 -34.9271
-68.428 -35.0119 11.7005
-67.0475 -30 -22.037
-83.8696 -23.706 -22.6459
-86.4604 -16.784 -27.186
25.0481 25.6133 -34.6863
27.056 22.6535 -36.513
-83.2038 -18.2182 -27.505
-66.7032 -15.4199 -33.9631
47.3012 -18.1296 -36.5156
43.971 -16.2393 -37.889
83.8011 31.3216 -9.75563
86.9099 30.8459 -7.73148
-69.4014 -13.0556 -34.2908
-107.531 -2.87663 -22.629
-107.395 -6.7239 -21.8796
-85.022 25.2284 20.3595
-81.8731 27.5338 18.9
-84.8216 -20.8721 -24.8899
-80.0192 -24.3502 -23.6461
-69.5845 1.48317 -36.6195
-98.4204 2.60597 -27.2631
-67.3463 -3.45026 -36.9974
-70.7556 -20.0724 -30.3343
-67.9261 -18.3054 -32.1873
-66.225 -0.142981 -37.4036
-93.5481 28.073 -8.74564
-90.1965 28.4202 -11.5009
26.9624 -14.3085 40.5248
23.4506 -15.8647 40.2117
-101.686 -25.6169 -3.72126
2.07179 14.4059 -41.5685
0.858427 11.1846 -42.5537
-98.1543 -26.8072 -6.15214
-95.2925 -28.4753 -3.66172
93.1777 8.69129 28.2402
89.4922 8.5506 29.7045
42.2478 32.8864 -25.2183
45.9393 32.0181 -25.5433
-104.669 -0.050373 -24.3862
-104.616 4.0159 -24.0819
-66.214 32.3482 -18.7837
-64.165 30.2935 -22.6769
-92.3272 27.2651 12.2057
-95.7399 25.4647 12.8583
18.6295 -10.2976 -42.2785
14.8335 -36.2826 24.3441
18.7697 -35.0064 25.8345
68.4637 -8.64877 -35.8794
71.9508 -8.64785 -35.0343
-41.9384 0.306491 -41.4798
-46.1145 1.05032 -40.9212
-106.492 23.0444 -4.06664
-102.234 25.1425 -4.92304
-55.219 -35.3042 17.785
-51.9482 -36.747 15.9769
-108.57 20.1404 -9.33884
-104.817 21.9778 -10.3861
99.3728 -23.6874 -12.8807
103.135 -21.6635 -12.823
-62.49 32.6234 -19.8399
-120.696 11.3753 4.80629
-113.405 -8.58166 -16.9648
-119.436 13.5236 2.57917
55.0147 -23.5276 -31.8104
53.0376 -26.4905 -29.8305
-109.016 20.8338 6.85042
-65.2833 18.8413 -32.5456
-105.841 22.8184 6.61959
-65.0596 -5.02742 37.3163
13.3126 14.6967 41.2106
10.5172 17.9096 40.0213
40.7331 38.7209 15.2827
-56.5484 1.76402 39.2605
-57.0072 -2.82235 39.1172
-30.3888 -24.6449 -34.865
-17.4691 -41.9389 11.8224
-14.4998 -42.6405 9.59419
-27.9469 -21.785 -36.9566
-114.591 17.4171 5.00064
-123.14 8.06772 3.79873
-116.885 15.957 2.95254
56.1902 -0.5274 39.3595
-22.7004 -29.2721 31.8756
-10.866 -17.5694 -40.1605
-15.2121 -13.8385 -41.4266
-17.593 -25.8579 35.0639
-15.0895 14.8655 41.0748
-19.5579 14.0493 41.1313
123.436 7.85467 2.98537
121.07 10.9214 4.70684
119.925 13.0659 2.11785
-35.7503 -31.6343 27.9069
-15.4781 3.5506 43.5208
1.51875 -8.13338 -43.2385
-2.556 -30.9654 31.2465
-46.0632 40.9363 0.669489
-41.9614 41.4766 0.352637
-30.9005 -32.7364 27.3392
12.3355 -39.8347 18.1816
7.72119 -39.7332 18.7075
5.10531 -38.3953 21.4152
-106.27 -22.7442 6.00475
-109.817 -20.7181 5.50316
48.2365 27.1454 30.2367
46.4789 29.9484 27.8318
9.47244 38.9067 -20.2801
-50.3717 38.7645 -11.0758
-46.0347 39.5319 -10.6664
-86.297 0.147896 32.0034
-14.4796 -17.3554 -40.1138
-88.1045 -3.92686 31.1484
-91.0426 -5.78628 29.7947
-38.5508 -13.7494 -39.5601
-31.897 -9.9515 -41.3812
-34.5207 -13.5085 -40.0952
-52.9757 23.2984 -32.3974
24.5909 -29.0969 31.8643
20.5664 -27.9285 33.2298
28.9906 4.8239 42.5421
78.8917 33.142 -8.69556
76.5194 34.3112 -6.47189
-19.3249 -37.3885 22.1895
-16.1831 -36.1359 24.4567
-49.6247 25.2583 -31.5677
-46.3809 24.5476 -32.7115
-120.397 -12.4825 2.34734
-122.79 -9.48939 0.117563
-118.664 -14.5533 -0.493833
-72.3948 28.2369 -22.2939
-68.4106 28.1482 -23.8894
-76.1476 26.339 -23.0727
-42.0701 -8.94939 40.4873
-38.6066 -8.56623 40.9895
-2.45702 -34.1591 -27.7203
5.19757 -33.2414 -28.7698
2.0156 -34.8671 -26.8288
48.0276 -32.6148 -24.2873
52.2778 -32.3241 -23.5914
56.2913 -34.6389 -18.6601
57.3769 -35.8486 -15.7423
59.9042 -32.4765 -21.0222
63.6388 -32.1824 -20.1112
108.861 1.16516 21.9942
105.159 2.76528 23.9682
55.5521 -30.5042 -25.0534
10.6738 42.8679 -9.18681
9.17719 43.5729 -5.20495
7.21179 43.1323 -8.32063
-65.3495 -23.233 -29.553
-64.4292 -20.0028 -32.0572
-3.38132 40.578 -16.9712
-80.7759 9.10787 32.4687
-4.51396 38.9967 -20.3166
48.2234 -6.84454 -40.0555
51.596 -5.50943 -39.7457
-1.12985 39.6889 -18.9903
-91.6519 -28.9007 8.5043
-85.1596 -30.5489 10.7181
-87.7759 -30.3878 8.32499
-30.6281 37.5697 20.2403
-32.3552 -15.4966 39.594
-34.1388 36.0301 22.2518
-38.064 35.0779 22.9816
15.0997 28.6074 33.0106
16.1659 22.6566 37.2919
17.7941 25.9779 34.9626
-75.9964 6.39027 34.4684
-74.6439 2.90465 35.2904
-56.0877 -20.2481 -33.7767
-57.6659 -16.2127 -35.5812
11.9776 -11.0026 -42.3955
-54.8004 -12.9309 -37.4316
-35.1434 -39.5623 -14.8194
-30.9293 -39.615 -15.7966
27.1336 10.6113 41.6325
-38.1951 -38.1215 -17.4396
8.27853 -43.6114 5.0648
5.29548 -43.2017 8.13511
-29.2324 42.2192 -6.99423
-33.7584 41.7876 -7.09047
9.477 31.4565 -30.5858
12.9994 31.965 -29.8923
15.2348 33.4605 -28.0709
3.98804 34.661 27.0678
59.5605 36.3591 13.4051
9.4807 36.868 23.7854
-78.8512 -28.5734 18.9301
6.93313 35.6262 25.7078
0.422245 20.3787 -38.996
3.59164 21.8582 -38.166
5.86626 -7.64293 -43.2825
92.7095 29.6285 2.41975
95.6144 28.3197 3.83661
9.08813 3.66872 43.7313
13.4965 -23.9129 -36.6316
38.9113 -41.59 -4.57227
9.16896 -24.7176 -36.2595
27.8779 -10.8079 41.5216
108.946 -0.898883 -21.9553
114.94 -1.017 -17.819
111.787 -2.65824 -19.9753
21.6575 34.7598 -25.8908
25.1541 35.4579 -24.5208
26.2682 32.8785 -27.7583
-64.3776 -12.4477 35.6881
41.6793 8.18911 40.6971
38.6248 10.4531 40.5473
-68.1879 -12.9555 34.6252
-28.4527 -14.6888 40.2632
124.54 1.79235 -5.81817
122.699 5.19382 -8.11319
-26.6408 -11.504 41.4339
-77.5618 -22.414 -26.4025
-74.2776 -24.5029 -25.6932
0.821452 -41.1036 15.6975
-6.17291 -41.1261 15.4913
-2.60208 -41.8755 13.4764
81.9439 19.7525 -26.9024
78.4737 17.9712 -29.3103
78.0639 14.7918 -31.1627
33.908 -33.1422 26.3975
37.9206 -32.5275 26.4936
27.2395 40.245 -15.0166
70.9177 -31.5354 18.0492
67.7883 -34.8864 12.5037
68.07 -33.091 16.5438
66.3274 -27.6508 -25.156
69.5987 -25.5611 -26.2598
6.86753 40.0123 18.1451
3.29849 37.1013 23.6254
6.60981 38.3377 21.4679
49.2894 31.7105 25.1596
47.6771 34.1711 22.1368
44.0309 33.5045 24.0019
7.67502 32.9351 29.0529
10.3948 34.1612 27.4916
-77.4294 11.7064 32.6336
33.712 41.2884 -9.59844
-50.8903 36.8883 16.068
-52.8472 37.8015 12.8499
-57.5889 36.7072 13.5109
108.17 19.9576 10.2555
111.325 17.8558 9.99235
112.997 17.8655 7.32067
-49.9213 39.8914 6.29017
24.3683 -8.96462 42.2248
-53.8979 39.4189 5.14686
35.7985 26.8486 32.5308
39.9551 27.0852 31.7324
-21.6264 34.6051 26.1002
30.8236 40.7081 -12.7486
-17.919 35.5342 25.1796
-11.4373 11.6658 -42.2362
-114.137 -9.17279 16.0289
-75.7039 30.2872 -17.8052
117.627 -14.1107 6.55201
119.541 -9.31019 9.98889
-20.8931 -22.9879 36.7983
120.129 -11.1631 6.67715
17.8971 -43.5519 0.142289
14.0345 -43.7195 0.699793
11.5607 -43.7553 -2.26139
-92.7439 -29.4306 4.0941
-51.0926 -5.97887 -39.7574
-49.6355 -1.92744 -40.3814
-95.6605 -28.5263 1.37703
71.9024 3.26686 35.9495
-112.745 -12.7302 14.7538
36.6824 -36.1826 21.4961
-32.3662 -5.54995 -42.1538
44.4266 -34.2422 22.8436
40.1695 -34.6377 23.2094
14.7702 33.0133 28.6254
35.7567 34.2994 -24.5565
32.1374 34.6567 -24.6671
11.6145 31.9069 30.0239
28.8174 -9.7866 -41.6959
17.4176 31.0351 30.5888
90.9731 -27.2568 13.4097
37.2627 -7.6698 -41.318
35.9833 -38.1304 -17.9875
39.4572 -38.6458 -15.8712
96.4897 -23.4475 15.6958
94.6958 -25.8251 13.0841
-104.64 12.2702 21.0923
-108.402 12.6503 18.3653
-107.602 -22.137 -5.33164
-104.257 -23.5749 -7.03375
-109.908 -19.8564 -7.92421
-0.14591 38.4566 21.3796
-10.6043 35.2426 26.0804
-3.2785 36.8391 24.0325
-6.75125 35.4381 25.9724
-18.4115 -38.8538 -19.6184
-22.6936 -36.5493 -23.1753
-22.2536 -38.5202 -19.788
-77.8527 -0.731089 34.5457
-78.9423 -31.719 12.9202
-77.2145 -4.59611 34.4229
7.93235 -3.88133 -43.7405
-3.87696 36.3146 -24.8075
6.58876 -22.2932 -37.8642
2.897 -22.9052 -37.5543
-24.4261 -41.1601 12.9924
-33.7877 42.3095 2.47782
-28.1632 -41.3388 11.4016
-12.6697 30.8867 -31.0219
-7.93658 35.264 -26.1675
21.3514 41.3199 13.1474
24.559 40.2698 15.508
-10.9597 33.5294 -28.2325
-89.3464 -30.9214 1.59122
-88.46 -31.1818 -2.37762
-90.927 -29.7562 -6.19239
-51.4411 -35.44 -18.8688
28.2442 -38.7398 -18.3728
19.1645 -38.2407 -20.7047
24.2536 -39.868 -16.5688
20.3228 -39.6735 -17.6479
-22.4175 39.7614 17.132
-17.5916 38.5946 20.2131
89.7395 30.3276 5.50276
[...]
POINT_DATA 2818
VECTORS F double
-2.60034e-08 1.59971e-08 -1.19389e-09
-2.50335e-08 1.92084e-08 -2.33028e-09
-2.2835e-08 3.1025e-08 2.69424e-08
-2.18504e-08 3.3332e-08 2.98875e-08
1.67492e-08 4.94872e-08 6.54932e-09
1.02632e-07 8.60327e-09 9.98495e-09
9.70981e-09 4.90865e-08 4.93706e-09
1.2146e-07 2.16967e-08 3.96503e-08
1.37399e-07 1.43647e-08 3.69607e-08
-2.83277e-08 -3.85142e-08 -1.79879e-09
-2.23209e-08 -3.74987e-08 -2.46364e-09
-8.22943e-09 -4.24071e-08 -4.48657e-09
-1.28686e-08 -4.12496e-08 -2.92205e-09
1.13968e-07 4.56471e-09 7.3851e-09
1.15704e-07 4.10498e-09 9.45191e-09
5.30298e-08 4.56841e-08 1.4993e-08
1.21461e-08 4.40958e-08 4.13457e-09
4.17415e-08 3.73452e-08 -8.20167e-10
-1.33832e-08 -7.00366e-09 -3.08417e-10
4.77326e-08 3.42829e-08 -8.38886e-10
8.95176e-09 4.00669e-08 1.62502e-08
1.04793e-08 4.20082e-08 1.70446e-08
5.87617e-08 2.14184e-08 1.96132e-09
5.64511e-08 2.19587e-08 5.04277e-10
6.81026e-08 4.92142e-08 -9.19261e-09
1.73431e-08 4.68403e-08 1.47123e-08
1.53077e-08 4.29148e-08 1.42099e-08
1.11852e-08 2.90285e-08 5.42405e-09
1.93573e-09 2.39648e-08 -7.07591e-09
2.29301e-09 2.69588e-08 -6.24715e-09
-3.35459e-08 1.28256e-08 -6.53436e-09
-3.08267e-08 1.62137e-08 -9.26241e-09
2.88467e-08 3.83982e-08 4.38377e-09
3.00044e-08 3.93835e-08 4.58357e-09
3.15939e-10 5.22888e-08 2.07939e-08
-1.17386e-09 4.7836e-08 2.13992e-08
-2.60707e-08 1.61988e-08 -4.34805e-09
-1.2529e-08 4.71396e-08 2.27298e-08
-1.32833e-08 4.44376e-08 2.22562e-08
-3.42033e-08 2.00643e-08 -7.96825e-09
-3.50558e-08 1.98735e-08 -8.14903e-09
-3.66536e-08 2.51229e-08 2.78822e-08
-3.67889e-08 2.8434e-08 2.98767e-08
7.70175e-08 1.43166e-08 7.27651e-10
7.45846e-08 1.55151e-08 9.34764e-10
8.13912e-08 2.01448e-08 -6.44668e-09
7.82008e-08 2.16444e-08 -7.09004e-09
7.43922e-08 2.22401e-08 -5.38483e-09
7.56261e-08 2.11643e-08 -6.10557e-09
3.35639e-08 2.46019e-08 -7.26694e-11
3.62535e-08 2.17641e-08 -3.12873e-10
4.63935e-08 3.66175e-08 7.15676e-10
1.97345e-08 3.67462e-08 7.41859e-09
4.9868e-08 3.45593e-08 -1.08661e-09
-5.22898e-08 -1.86562e-09 -5.2275e-09
-4.92824e-08 -3.51605e-09 -3.90227e-09
6.48418e-08 2.85041e-08 -4.40895e-09
6.13989e-08 3.04387e-08 -4.85267e-09
-2.74365e-08 2.49019e-08 2.58982e-08
-2.74638e-08 2.12668e-08 2.47089e-08
-2.03566e-08 1.58762e-08 -8.52648e-09
-2.81465e-08 1.54468e-08 -8.24655e-09
7.28114e-08 1.79853e-08 -4.58742e-09
6.97353e-08 1.91757e-08 -3.17029e-09
-1.58212e-08 3.93989e-08 1.36234e-08
-8.3819e-09 4.79394e-08 1.37494e-08
-3.23033e-08 1.89266e-08 2.39126e-08
4.27115e-08 2.3422e-08 1.41549e-09
-3.74394e-08 1.57594e-08 2.03507e-08
-2.94502e-08 1.25949e-08 -6.17609e-09
-2.29459e-08 1.63583e-08 -6.71988e-09
-1.5315e-08 2.07077e-08 -6.82122e-09
5.11493e-08 3.03206e-08 2.69117e-08
3.39173e-08 2.36218e-08 1.77326e-08
-1.4489e-08 2.01982e-08 -8.01236e-09
-4.89486e-09 2.16559e-08 -8.65531e-09
-3.78932e-08 -8.43053e-09 -1.8239e-09
-3.69648e-08 -6.29214e-09 -2.55523e-09
5.76559e-08 -2.14933e-08 -8.37137e-09
5.65026e-08 -2.09181e-08 -5.69442e-09
-4.19128e-09 2.41306e-08 -8.14884e-09
-8.18888e-10 2.97533e-08 -3.30592e-09
-7.54874e-09 2.74522e-08 -3.90013e-09
6.26738e-08 2.99038e-08 -5.01161e-09
6.66673e-08 2.77588e-08 -5.08196e-09
-1.81784e-08 1.92072e-08 -8.52223e-09
-2.15349e-08 1.65943e-08 -8.16632e-09
1.69194e-08 2.82844e-08 -2.79059e-09
1.06791e-08 2.88808e-08 -1.95939e-09
9.33134e-09 2.68538e-08 -4.58392e-09
-1.25016e-08 1.93002e-08 -9.20094e-09
-1.17846e-08 2.19717e-08 -9.4509e-09
1.72644e-08 2.65825e-08 -3.84403e-09
5.94736e-08 2.40981e-08 -5.32248e-10
6.00967e-08 2.27038e-08 -1.59894e-09
-2.2358e-08 -3.4337e-09 6.08845e-10
-2.42724e-08 -9.16163e-10 1.37159e-09
-3.13195e-08 1.41458e-08 7.3998e-09
4.18725e-08 4.04073e-08 1.4259e-08
2.78294e-08 4.56286e-08 1.20616e-08
-3.14526e-08 1.31273e-08 4.23637e-09
-3.23945e-08 1.21814e-08 8.48463e-09
1.73625e-08 -2.96851e-08 2.12234e-09
1.69935e-08 -3.19494e-08 2.92872e-09
6.83101e-08 -6.67542e-09 5.30564e-09
6.74202e-08 -9.99514e-09 2.31641e-09
4.12222e-09 2.98157e-08 -2.22782e-09
1.26573e-08 3.12852e-08 -1.51477e-09
6.76973e-08 1.60459e-08 -1.58327e-09
6.32361e-08 1.76428e-08 1.66221e-09
6.39164e-08 2.82083e-08 -3.81884e-09
6.16925e-08 2.9958e-08 -3.09077e-09
-2.79069e-08 1.10718e-08 -4.20227e-09
-5.70274e-08 -2.32141e-11 4.21964e-09
-5.5734e-08 -8.8945e-10 3.75229e-09
-2.24212e-08 -2.01215e-08 -3.87749e-10
-2.17896e-08 -1.89847e-08 -7.92617e-10
2.16872e-08 3.35975e-08 -2.43627e-09
1.98535e-08 2.9378e-08 -1.98513e-09
5.40915e-08 3.06005e-08 -1.61981e-11
5.68618e-08 2.84256e-08 6.04106e-10
-4.11148e-08 2.22505e-08 2.85396e-08
-4.40431e-08 1.83771e-08 2.47351e-08
4.66444e-08 3.1028e-08 5.24949e-10
4.93681e-08 2.93114e-08 1.02688e-09
-4.68943e-08 -2.37683e-08 -5.83729e-10
-4.51704e-08 -2.57117e-08 -1.0414e-09
6.9491e-08 1.65571e-08 4.28167e-10
3.34092e-08 4.23393e-08 2.51053e-09
-1.39648e-08 2.8692e-08 -3.0849e-09
3.86415e-08 4.12856e-08 2.60207e-09
-4.4752e-08 -1.0501e-08 -1.70899e-09
-5.00238e-08 -8.75051e-09 -3.11831e-09
5.27182e-08 3.38799e-08 -3.24673e-10
4.64764e-08 2.006e-08 1.9928e-10
5.54916e-08 3.16958e-08 -6.31401e-10
2.3497e-08 4.61081e-08 1.12275e-08
3.63532e-08 2.18646e-08 -9.23515e-09
5.18924e-08 3.3404e-08 -1.66179e-08
1.41655e-07 -1.76121e-08 -1.60139e-09
4.00321e-08 4.85318e-08 4.87872e-09
3.02881e-08 4.78761e-08 8.85844e-09
-3.69614e-08 2.93538e-08 -1.6805e-08
-6.49925e-08 6.34587e-09 1.07538e-08
-6.72289e-08 4.34465e-09 6.87009e-09
-3.66563e-08 3.18544e-08 -1.53836e-08
4.66188e-08 3.74183e-08 4.63164e-10
2.56326e-08 4.59926e-08 4.05169e-09
4.31644e-08 3.84012e-08 1.66846e-09
3.77025e-09 -2.52883e-08 -9.97815e-10
-4.01026e-08 2.62411e-08 2.06012e-08
-3.23652e-08 2.98563e-08 -1.19894e-08
-2.32504e-08 3.46805e-08 -1.05397e-08
-3.5866e-08 2.83809e-08 1.87265e-08
7.27037e-08 5.75473e-08 -1.75572e-08
7.3671e-08 4.50798e-08 -1.11093e-08
2.07195e-08 -3.8754e-08 -2.91953e-09
2.59543e-08 -3.46749e-08 -1.27689e-09
2.99829e-08 -3.32142e-08 -2.9498e-09
-4.17397e-08 2.85238e-08 2.57872e-08
3.49599e-08 5.5532e-08 -3.00827e-09
-2.17153e-08 2.68865e-08 -5.1509e-09
-4.92527e-08 1.36303e-08 1.30144e-08
9.69139e-08 1.34709e-08 -7.32061e-09
9.94421e-08 1.23552e-08 -4.47549e-09
-4.1961e-08 2.43117e-08 2.33048e-08
-6.31657e-08 -8.11072e-10 3.46988e-09
-6.38169e-08 6.03096e-10 4.50561e-09
-6.10174e-08 2.95411e-09 7.07731e-09
-2.63629e-08 1.88433e-08 1.42518e-08
-2.74158e-08 2.12465e-08 1.30075e-08
6.77734e-08 -2.57637e-08 9.89277e-09
7.8234e-08 -2.14195e-08 7.05293e-09
1.27453e-07 -2.20766e-09 3.05293e-09
8.89458e-08 1.26863e-08 -5.12414e-09
9.12706e-08 1.21995e-08 -3.01284e-09
2.81715e-08 4.08387e-08 9.1116e-09
-3.29263e-08 3.12864e-08 -1.20811e-08
2.00237e-08 4.14889e-08 1.21647e-08
1.59052e-08 4.04957e-08 1.38147e-08
-1.46205e-08 3.18371e-08 -9.32089e-09
-9.76327e-09 3.74912e-08 -8.09466e-09
-1.41168e-08 3.76466e-08 -1.11954e-08
5.83232e-08 1.79151e-08 1.20753e-09
-4.4921e-08 -2.12799e-09 2.30114e-09
-4.44006e-08 4.48882e-10 3.74172e-09
1.36408e-08 -6.86972e-09 -3.59077e-10
6.42915e-08 -2.12282e-08 -9.49569e-09
6.7593e-08 -1.96295e-08 -6.22429e-09
-5.58538e-08 1.25605e-08 1.52085e-08
-5.61794e-08 1.42824e-08 1.65517e-08
6.07732e-08 1.72985e-08 2.14447e-09
6.29283e-08 1.94237e-08 3.65233e-09
-2.43855e-08 3.08886e-08 1.11261e-08
-2.21043e-08 3.51221e-08 8.39227e-09
-2.71284e-08 2.67977e-08 8.36189e-09
5.90313e-08 1.91038e-08 7.27447e-10
6.06648e-08 1.96105e-08 1.83763e-09
5.63326e-08 1.9964e-08 2.83103e-11
1.65496e-08 5.2712e-08 1.3757e-08
1.75078e-08 5.70251e-08 1.39364e-08
-6.17847e-08 1.05814e-08 -1.23688e-08
-6.08778e-08 8.13751e-09 -1.07487e-08
-6.17854e-08 7.84042e-09 -1.07578e-08
-5.75995e-08 -7.92802e-09 -3.29879e-09
-5.693e-08 -8.46857e-09 -3.84186e-09
-6.01542e-08 -9.90244e-09 -3.83501e-09
-6.15406e-08 -1.06855e-08 -3.12798e-09
-5.78438e-08 -1.13555e-08 -2.63763e-09
-5.72794e-08 -1.20351e-08 -2.93197e-09
5.74523e-09 -3.41516e-08 -1.67218e-09
7.18585e-09 -3.13736e-08 -2.40229e-10
-5.504e-08 -9.82972e-09 -2.97338e-09
1.42472e-07 -6.29702e-09 -9.11726e-09
1.42729e-07 -4.63573e-09 -7.99765e-09
1.39093e-07 -4.53346e-09 -8.74038e-09
-2.08328e-08 1.97353e-08 -9.87487e-09
-1.16257e-08 2.01152e-08 -9.69063e-09
1.18682e-07 3.09014e-09 4.49363e-09
4.15118e-08 4.27709e-08 6.46072e-10
1.10357e-07 4.53151e-09 5.69601e-09
-2.11459e-08 -9.49395e-09 -1.49459e-09
-1.97851e-08 -1.14293e-08 -1.56025e-09
1.11625e-07 4.07899e-09 7.7119e-09
-2.85241e-08 1.5946e-08 1.65544e-08
-2.79615e-08 1.63013e-08 1.92624e-08
-2.76653e-08 1.43101e-08 1.65225e-08
1.08577e-07 1.69695e-08 -1.13829e-08
-5.95446e-09 4.77274e-08 1.80843e-08
1.03023e-07 1.98949e-08 -1.28625e-08
1.0068e-07 2.03224e-08 -1.06033e-08
9.70903e-08 3.20965e-08 -3.32526e-08
6.2925e-08 2.5177e-08 -1.86358e-08
7.53498e-08 1.95434e-08 -1.92162e-08
3.80401e-08 4.44499e-08 2.02766e-09
3.61855e-08 4.28764e-08 5.84145e-09
-1.70997e-08 2.21566e-08 -9.80591e-09
-8.09926e-09 2.69207e-08 -1.06595e-08
-2.84129e-08 1.75215e-08 -5.52996e-09
-2.97669e-09 2.70385e-08 -8.80698e-09
-5.91604e-08 8.85803e-09 -6.47134e-09
-5.89646e-08 9.71477e-09 -1.02282e-08
2.44596e-08 -4.78728e-09 -7.31503e-10
-5.58692e-08 1.16619e-08 -1.05114e-08
-7.11072e-08 -1.71894e-09 -5.7146e-10
-6.91601e-08 -6.18874e-10 2.2255e-09
1.05778e-07 8.42062e-09 -3.29723e-09
1.02695e-07 9.35419e-09 -4.73258e-09
1.06896e-07 3.13934e-08 3.63423e-08
1.02305e-07 4.47319e-08 5.32805e-08
1.10684e-07 3.64989e-08 5.08613e-08
1.37696e-07 1.75433e-08 -2.49485e-08
8.43469e-08 -1.911e-08 5.95027e-09
1.41589e-07 1.45322e-08 -2.94348e-08
-2.42948e-08 2.40659e-08 2.39359e-08
1.31825e-07 2.26621e-08 -3.57578e-08
6.63518e-08 3.94154e-08 2.06858e-08
6.21526e-08 4.64859e-08 2.73392e-08
-2.07074e-08 2.5513e-08 -4.84881e-09
5.4393e-08 -2.07051e-08 -1.62107e-09
5.34133e-08 -2.20944e-08 1.15667e-10
1.14569e-08 2.15511e-08 -2.09944e-09
-4.83069e-08 9.60457e-09 -8.44892e-09
-6.89135e-08 -7.45579e-09 -3.98362e-09
-4.90831e-08 1.05428e-08 -8.70651e-09
-1.51899e-08 -4.59634e-09 5.22492e-11
-9.08755e-09 -3.36456e-08 -4.14346e-09
-8.01356e-09 -3.55158e-08 -4.30156e-09
-1.03977e-08 -3.49605e-08 -2.47165e-09
1.21574e-07 3.03726e-08 5.32275e-08
1.14299e-07 3.82813e-08 6.97111e-08
6.72735e-08 3.82127e-08 5.30555e-08
8.2565e-09 4.90919e-08 1.89463e-08
2.31269e-08 -1.92733e-08 9.78401e-10
2.48471e-08 -1.63257e-08 1.31099e-09
7.6215e-09 4.32266e-08 1.80114e-08
-5.72599e-09 5.14622e-08 1.8279e-08
3.32014e-09 -4.29797e-08 -4.54028e-09
1.02871e-08 -3.94371e-08 -6.19985e-09
-1.13316e-09 5.16052e-08 1.42389e-08
-1.97376e-08 1.83218e-08 -8.45516e-09
-2.0029e-08 1.61317e-08 -8.29536e-09
-6.6091e-08 2.35427e-09 6.58822e-09
-6.51969e-08 4.5513e-09 8.90209e-09
-6.66203e-08 2.33633e-09 5.68473e-09
2.72501e-08 -2.69016e-08 -9.58986e-09
2.58377e-08 -2.75248e-08 -8.4072e-09
1.71288e-08 -2.738e-08 -7.74297e-09
-5.07243e-08 -6.94309e-09 -7.39949e-10
-4.99939e-08 -7.42639e-09 -3.5696e-10
1.75478e-07 1.94651e-09 4.41874e-08
-5.07873e-08 -1.6103e-08 -3.70405e-09
-5.66579e-08 -1.47432e-08 -3.52791e-09
-5.23547e-08 -1.48447e-08 -3.31898e-09
-5.10266e-08 -1.29533e-08 -2.23384e-09
-4.87051e-08 -1.48944e-08 -1.30609e-09
1.50999e-07 6.52709e-09 -2.139e-08
1.41665e-07 1.574e-08 -2.71395e-08
1.52475e-07 7.80576e-09 -1.96872e-08
8.5081e-08 -2.5049e-08 1.11645e-08
9.75359e-08 -2.14118e-08 7.33316e-09
1.00546e-07 -2.51058e-08 1.24632e-08
1.31904e-07 2.55556e-08 -3.32366e-08
1.32188e-07 2.51345e-08 -3.73515e-08
4.51465e-08 4.08287e-08 -1.53154e-09
1.93011e-07 -1.12012e-08 3.48132e-08
9.24308e-08 1.87855e-08 -7.28599e-09
9.02175e-08 1.80505e-08 -7.67457e-09
8.67274e-08 1.94024e-08 -7.45488e-09
3.78899e-08 -2.59965e-08 1.66201e-09
3.68512e-08 -2.86988e-08 1.01806e-09
3.60315e-08 -2.7669e-08 -5.66749e-10
9.32087e-08 1.56284e-08 -8.54639e-09
-1.36667e-08 -8.76624e-10 7.79533e-10
9.00495e-08 1.58563e-08 -5.98864e-09
7.18187e-08 -1.75762e-08 4.83014e-09
7.23518e-08 -1.88184e-08 4.90909e-09
1.14098e-07 1.83509e-08 -1.27561e-08
1.70938e-07 5.71887e-10 5.24263e-08
1.16364e-07 1.85153e-08 -1.59907e-08
3.48983e-08 5.06425e-08 1.28306e-08
-5.23749e-09 3.83104e-08 1.73577e-08
6.40565e-08 1.92423e-08 -6.12719e-10
-3.19682e-08 -3.46342e-08 -4.32424e-09
-2.07459e-08 -3.7193e-08 -4.26914e-09
-2.86211e-08 3.66098e-08 2.08807e-08
-2.676e-08 -3.83571e-08 -5.18296e-09
-7.12082e-08 -3.59108e-09 -2.6032e-09
-7.18321e-08 -2.85747e-09 -2.1467e-09
-7.17442e-08 -2.16054e-09 -3.10004e-09
-3.06954e-08 1.39138e-08 1.48887e-08
6.52359e-09 3.0759e-08 -5.65209e-09
1.66093e-08 2.93674e-08 -3.90128e-09
-3.05912e-08 1.30982e-08 1.11587e-08
9.14918e-09 -2.69475e-08 2.08461e-10
-1.13883e-08 3.3523e-08 1.82705e-08
-5.58228e-08 -7.49033e-09 -9.45167e-10
3.0693e-09 4.05426e-08 -5.62629e-09
-5.27737e-08 -9.60702e-09 -1.83505e-09
-5.36235e-08 -9.16393e-09 -2.31373e-09
1.23251e-07 2.57133e-08 -3.74407e-08
8.06439e-08 3.44604e-09 1.91897e-08
8.11534e-08 1.43963e-08 3.31711e-08
1.24244e-07 2.51961e-08 -3.26606e-08
-2.80081e-08 3.95177e-09 -3.29751e-09
1.1461e-07 2.12023e-08 -2.95014e-08
-4.63443e-08 -2.10627e-08 -4.31949e-09
-2.39313e-08 -4.05983e-09 -1.88875e-09
-6.58274e-08 -5.0353e-09 -5.44841e-09
-6.5657e-08 -6.24522e-09 -4.77719e-09
-4.01983e-08 -2.36529e-08 -5.07955e-09
-4.53668e-08 -2.21244e-08 -3.46957e-09
3.97099e-08 3.88589e-08 1.5135e-09
3.85749e-08 3.9023e-08 9.96806e-10
-3.01175e-08 1.64472e-08 6.12762e-09
-2.93456e-08 1.47266e-08 3.89459e-09
-2.8728e-08 1.84e-08 2.67657e-09
1.4289e-07 9.64744e-09 -1.72339e-08
1.25254e-07 1.41568e-08 -1.2895e-08
1.32998e-07 1.4721e-08 -2.03445e-08
1.26586e-07 1.85351e-08 -2.12617e-08
-6.29246e-08 9.8478e-09 -1.22733e-08
-5.91388e-08 1.29075e-08 -1.32661e-08
-6.35052e-08 1.10915e-08 -1.28475e-08
2.93232e-08 4.4167e-08 9.02526e-09
-2.96262e-08 1.75653e-08 2.09607e-08
2.336e-08 4.15842e-08 1.19675e-08
-1.49553e-08 2.36476e-08 -2.43047e-09
1.02264e-07 1.1131e-08 1.43374e-08
-4.5382e-08 1.48737e-08 -9.72399e-09
-4.63521e-08 1.58937e-08 -1.01316e-08
-6.17462e-08 8.95634e-09 1.41616e-08
1.06395e-07 1.06798e-08 -4.73693e-09
-6.20175e-08 8.60735e-09 1.24527e-08
8.48956e-08 1.53798e-08 1.10678e-08
1.0215e-07 9.07312e-09 8.43396e-09
1.74684e-07 -6.56937e-09 -1.40856e-08
1.79045e-07 -5.974e-09 -1.92015e-08
9.43123e-08 1.28831e-08 1.08178e-08
-3.17274e-08 1.18448e-08 1.20669e-08
-3.47328e-08 1.13468e-08 9.39953e-09
-3.20746e-08 1.09579e-08 5.00513e-09
-4.37494e-08 1.17529e-08 -7.47209e-09
-6.70651e-08 -3.20939e-09 -5.85517e-09
-6.64379e-08 2.12796e-11 -7.56824e-09
-6.81419e-08 -2.61147e-09 -5.92818e-09
-6.85931e-08 -1.36317e-09 -6.60645e-09
1.16876e-07 1.34008e-08 -1.23778e-08
1.22335e-07 1.33155e-08 -1.23892e-08
5.71928e-08 -2.10382e-08 1.75782e-09
5.46681e-08 -2.08883e-08 2.25227e-09
1.1997e-07 1.22235e-08 -1.43519e-08
1.42053e-07 9.4966e-09 3.80376e-08
6.33791e-08 3.93933e-08 -7.83177e-09
5.9995e-08 4.01684e-08 -5.50037e-09
1.53966e-07 2.90765e-09 3.3402e-08
1.61288e-07 -2.5258e-09 3.06963e-08
-6.31338e-09 3.99166e-08 1.51166e-08
6.47676e-08 2.41286e-08 -2.30332e-09
3.75093e-08 3.62793e-08 1.67926e-09
5.62638e-08 2.62149e-08 6.38176e-10
9.35179e-08 1.51305e-08 1.3965e-08
1.06786e-07 2.38422e-08 2.05179e-08
8.2853e-08 -2.21624e-08 8.28478e-09
7.20595e-08 -2.43578e-08 1.05051e-08
-3.99874e-09 -3.21878e-08 -1.56617e-09
-4.51381e-09 -3.50786e-08 -1.76761e-09
-6.73843e-09 -3.47956e-08 -3.78414e-09
4.21867e-08 3.75459e-08 2.71971e-09
4.68403e-08 3.46437e-08 1.34749e-09
3.53089e-08 1.42976e-08 1.27859e-08
-2.16804e-08 4.27934e-08 2.23657e-08
3.83307e-08 1.01435e-08 1.19141e-08
-5.06593e-08 1.78674e-09 5.191e-09
-5.19541e-08 2.57956e-09 5.58908e-09
-1.51749e-08 4.32863e-08 1.84704e-08
-5.13616e-09 -2.23649e-08 -2.76679e-09
6.10051e-08 2.71567e-08 -1.81547e-09
5.87427e-09 -3.59128e-08 -6.73094e-09
6.05704e-09 -3.5877e-08 -5.75731e-09
-4.463e-08 -2.82479e-08 -3.2217e-09
6.68033e-08 1.83253e-08 5.57582e-09
7.21086e-08 2.22229e-08 1.17299e-08
-4.01874e-10 5.20319e-08 1.33037e-08
6.81787e-08 2.47877e-08 1.12638e-08
1.55615e-08 5.67303e-08 1.07574e-08
9.65715e-08 4.5851e-08 -3.06895e-08
1.42053e-07 1.19513e-08 -3.27329e-08
1.41715e-07 1.37014e-08 -3.01837e-08
9.52038e-08 4.43181e-08 -2.7277e-08
9.5247e-08 4.70017e-08 -2.65798e-08
-1.40893e-08 3.03114e-08 2.52604e-08
-1.07401e-08 3.50581e-08 2.56841e-08
3.69552e-08 -2.97673e-08 6.58947e-09
4.42348e-08 -2.64099e-08 5.95019e-09
3.70587e-08 -2.82819e-08 5.25291e-09
-4.70253e-08 2.02777e-08 -1.38786e-08
-3.92246e-08 2.47862e-08 -1.56393e-08
-3.77556e-08 2.68098e-08 -1.44475e-08
1.94013e-07 -1.90041e-08 -6.43642e-09
-1.72751e-06 2.66598e-07 -4.33651e-07
1.73308e-07 -1.43451e-08 -7.09884e-09
1.25977e-07 2.94474e-08 5.89499e-08
1.11398e-07 4.06603e-08 5.7275e-08
1.53748e-08 -3.39771e-08 -6.21578e-09
-6.28666e-08 7.52154e-09 1.0923e-08
-2.65448e-08 -2.70729e-08 -4.52e-09
-6.5695e-08 4.68995e-09 8.29899e-09
-6.2056e-08 7.43565e-09 1.15992e-08
1.21418e-07 2.17884e-09 -1.82556e-09
-1.81543e-08 -2.45239e-08 -4.8554e-09
-2.14768e-08 -2.11756e-08 -4.15417e-09
5.74018e-08 2.02354e-08 2.9276e-09
5.80488e-08 2.28115e-08 5.80505e-09
-2.23566e-08 -2.3188e-08 -5.09012e-09
-2.22091e-08 3.88565e-08 2.98987e-08
-3.31379e-08 3.04477e-08 2.27709e-08
-3.3468e-08 3.32915e-08 2.3377e-08
-2.3124e-08 2.3161e-09 2.202e-09
-1.58207e-08 2.14727e-09 1.49817e-09
-2.52159e-08 4.8101e-09 3.17873e-09
8.27028e-08 -1.79866e-08 -2.21315e-09
9.3402e-08 1.39515e-08 -5.0863e-09
-3.16231e-08 -1.27125e-08 -8.53347e-10
8.84947e-08 1.36723e-08 -3.97066e-09
9.37075e-08 1.29507e-08 -6.5182e-09
-8.79208e-09 4.28197e-08 -9.59762e-09
5.32449e-08 2.3348e-08 -2.94721e-10
-1.88929e-08 3.18253e-08 -1.17218e-08
1.30785e-07 -3.23339e-09 4.08561e-09
1.42103e-07 -7.86291e-09 -3.72008e-09
2.52397e-08 4.91106e-08 1.20012e-08
1.33821e-08 5.15395e-08 1.50876e-08
1.24682e-08 4.95796e-08 1.50182e-08
-5.71389e-08 1.38533e-08 1.85406e-08
-5.6365e-08 1.4087e-08 1.88774e-08
1.26999e-08 4.82791e-08 1.70759e-08
8.65039e-08 -2.2259e-08 9.73572e-09
9.03441e-08 -1.96239e-08 6.21846e-09
9.05195e-08 -1.9988e-08 7.35068e-09
9.86113e-08 -2.03662e-08 5.43622e-09
8.44064e-08 -2.02099e-08 6.3581e-09
5.20753e-08 1.8571e-08 2.33541e-08
4.69192e-08 7.23647e-09 1.25345e-08
4.76565e-08 -2.4505e-08 5.7477e-09
-3.81706e-08 -4.69734e-09 -2.80717e-09
3.80517e-08 -2.73965e-08 6.09476e-09
4.32647e-08 -2.78932e-08 7.48095e-09
-3.92056e-08 -2.64641e-08 -6.31131e-10
-3.9519e-08 -2.71386e-08 3.75089e-11
-4.07332e-08 -2.48808e-08 1.687e-10
8.63843e-08 1.4395e-08 7.40967e-09
8.52056e-08 1.23785e-08 2.78606e-09
8.11433e-08 1.36607e-08 3.13398e-09
5.58264e-08 2.22458e-08 1.04943e-09
9.65037e-08 2.95288e-08 -1.4019e-08
-1.95689e-08 1.8617e-08 -9.30299e-09
1.11032e-07 1.65661e-08 -1.42583e-08
9.55911e-08 1.12112e-08 -4.99129e-09
9.48192e-08 2.59118e-08 -9.37464e-09
5.01396e-08 3.45625e-08 8.82439e-10
6.74674e-08 2.00239e-08 -4.41967e-09
2.04822e-10 4.70784e-08 2.28591e-08
5.14143e-12 4.89249e-08 2.10676e-08
-2.8377e-08 2.47096e-08 -1.24753e-08
-2.56781e-08 2.27315e-08 -1.04875e-08
-2.6989e-08 2.83656e-08 -1.27539e-08
-3.28933e-08 1.18984e-08 -4.52741e-09
2.51132e-08 4.53797e-08 3.60346e-09
-3.12122e-08 1.37856e-08 1.59624e-08
2.27387e-08 4.45904e-08 5.98464e-09
8.53045e-08 1.4389e-08 -5.14775e-09
8.30494e-08 1.50787e-08 -5.52251e-09
-4.9668e-08 2.02121e-08 2.55434e-08
1.88057e-08 5.2008e-08 6.69874e-09
-4.76391e-08 1.71612e-08 2.32688e-08
-1.05617e-08 4.72736e-08 2.6463e-08
6.27093e-08 2.16077e-08 -1.11753e-09
-3.76128e-08 -3.46684e-08 -2.28816e-09
-4.09438e-08 -3.14361e-08 -2.93019e-09
-4.26407e-08 -3.1021e-08 -3.09567e-09
-5.38096e-08 1.65697e-08 -1.55908e-08
-4.80093e-08 1.8571e-08 -1.44961e-08
-5.46125e-08 1.56147e-08 -1.30723e-08
-4.49077e-08 1.39214e-08 2.14634e-08
-3.77297e-08 2.08554e-08 2.80268e-08
-3.60824e-08 1.65161e-08 2.51654e-08
4.77528e-08 2.68812e-08 6.37071e-10
-2.5487e-08 -2.10104e-08 -4.67235e-09
-2.49145e-08 -2.05314e-08 -5.04016e-09
8.67496e-08 1.56402e-08 -5.62734e-09
3.83949e-08 -1.77142e-08 2.68831e-09
3.22153e-08 -2.08689e-08 2.81972e-09
8.12072e-08 1.77652e-08 -5.68993e-09
8.39581e-08 1.6948e-08 -6.89434e-09
2.67705e-08 4.44076e-08 3.93277e-09
2.10108e-08 4.34758e-08 7.03927e-09
2.51414e-08 4.30461e-08 4.87764e-09
-3.4891e-08 3.06022e-08 -1.41909e-08
-3.58293e-08 3.11017e-08 -1.59975e-08