# vtk DataFile Version 2.0
S, Created by Mohamad Ibrahim Cheikh
ASCII
DATASET UNSTRUCTURED_GRID
POINTS 9548 double
-217.361 42.0138 -13.9463
-249.457 -4.83967 10.0921
-220.337 39.4347 -15.6549
-99.6105 -50.4364 -63.1299
-103.451 -49.7231 -62.9393
-224.17 -32.113 -23.6719
-220.839 -34.3773 -24.3162
-247.283 -13.5893 8.53344
-246.973 -11.6957 11.8099
-250.356 -5.16819 6.59971
-211.22 -41.5101 -23.6395
-208.338 17.2547 -46.1762
91.2701 61.7077 -54.0027
95.1978 60.8003 -54.2014
-214.861 -39.3827 -23.2587
-126.016 59.3524 47.7188
48.5917 -74.6232 -43.4315
45.455 -76.392 -40.6853
-123.334 61.6636 45.5992
-58.1467 -62.9198 -58.0617
-60.7722 -64.7458 -55.676
58.6633 -22.9905 -82.4264
-234.461 22.1041 -22.9159
-211.063 -44.6058 17.3296
57.4836 -78.7815 -33.6588
23.3602 -8.92614 87.1637
61.1672 -78.0104 -34.6455
-187.809 -13.8014 -56.8782
-189.816 -10.7107 -56.7284
-93.4507 -43.6445 69.065
-97.4298 -42.443 69.1405
-176.747 -39.6237 48.4696
25.8759 79.6329 -36.3404
11.1578 3.70295 -87.8353
15.0203 1.63923 -87.8276
24.6667 80.8946 -33.5495
-173.656 -38.4198 50.7528
-212.815 -44.6714 14.2671
-233.797 16.5886 27.8678
-180.422 61.0739 5.3484
-184.549 59.5096 5.72883
-230.812 17.0687 30.5005
-229.141 24.7689 26.4989
-82.8506 77.6976 -29.4396
-82.218 76.4346 -32.7742
-0.323618 2.51649 -87.9639
-193.935 46.3125 31.5346
-172.807 3.13287 -63.8601
14.4231 -85.6906 19.3817
15.5951 -86.4418 15.5576
-172.708 6.79971 -63.6074
-185.136 -50.8565 -31.0044
-61.4411 -66.9512 -52.909
-59.4324 -68.9523 -50.5681
-67.9775 -68.8157 -49.4233
-66.3103 -66.891 -52.2614
-188.476 -50.2272 -29.5315
-186.753 58.9176 -1.6557
-182.559 60.4922 -2.09049
-106.471 79.674 2.85728
-110.469 78.9953 3.11022
-154.758 -63.5292 -27.8535
-150.779 -65.1297 -26.8098
91.9806 -53.7265 -61.8195
96.0741 -54.0155 -60.7969
-199.625 -3.05795 53.4393
-200.162 -7.30383 52.7777
-222.352 -19.1035 -36.4146
-247.13 -9.55277 -13.2488
204.235 49.8946 12.1536
201.766 50.1898 15.5215
-45.7391 61.9318 -60.4344
-43.8616 64.3766 -58.001
198.545 51.721 15.5792
-199.076 50.5676 -18.2989
23.9816 13.5999 -86.5369
191.234 49.2908 -28.9327
188.948 51.5992 -26.657
194.954 47.846 -28.3119
10.3362 -85.3283 21.2132
10.1646 -84.1736 25.4196
6.58752 -85.8588 19.1558
-227.352 -12.1887 -35.5971
43.2718 7.50346 -86.3623
-228.855 -14.2887 -33.5795
-202.735 -36.1833 -37.4526
-198.691 -38.3447 -37.9522
-67.394 61.284 -58.5849
-69.8677 59.1735 -60.3726
-228.32 -17.9963 -32.2152
-237.962 28.3426 2.81898
-108.935 40.0454 -68.4653
-104.984 41.4991 -68.3553
-135.79 -73.8685 5.47491
-124.299 38.0613 -66.3608
-133.551 -74.0317 8.92523
-234.721 31.2649 4.61786
-231.749 34.1414 1.71115
233.179 -31.3431 10.2358
234.712 -28.9097 12.7883
-188.799 16.5859 55.7211
-191.907 13.4784 55.2579
-97.3892 32.2963 74.4294
-93.8542 29.9103 75.9666
-35.8621 -75.2034 -43.943
-216.56 13.0641 42.7966
243.001 -16.3841 -15.6877
243.376 -18.4519 -12.3184
-91.9467 -44.1355 -69
-93.8968 -47.0712 -66.6999
-212.336 41.6144 22.1878
-31.9345 -75.0498 -44.5722
-91.3024 -51.0726 -64.1482
-86.5422 -51.1693 -64.8749
-30.0536 -73.148 -47.7786
-227.76 -24.723 -27.9601
-180.938 32.5793 -51.7147
-177.464 40.9066 -47.0627
-110.468 -75.4565 23.5855
-106.872 -76.5223 22.1354
-127.93 -64.248 40.1556
-131.023 -62.1785 42.1435
-175.368 37.9892 -50.3547
-177.287 34.7011 -51.8823
-45.7206 -22.6707 -83.5112
-49.2642 -24.3633 -82.7846
-218.3 36.7414 23.6572
-206.441 12.8738 -48.5855
-203.893 15.921 -48.9979
-91.3275 -78.2955 -24.3446
-88.7154 -77.7824 -27.0243
-216 35.8127 27.3743
-209.786 -40.3987 26.9024
-199.326 -48.0852 23.8228
-202.541 -45.518 25.4885
-51.9483 -84.4984 16.5419
-54.6534 -84.8113 13.6144
-59.119 -84.4032 13.8636
-203.557 48.6229 -17.5174
-219.468 -2.57072 -42.8998
-218.396 -6.65287 -43.1302
-206.357 46.1778 -19.9528
-237.171 -16.5095 -24.1809
-178.152 -51.1566 -35.2319
-174.195 -51.5605 -37.0204
-106.467 -28.5031 74.4567
-103.895 -31.3784 73.7418
-59.7586 -49.2896 -69.8378
-55.7987 -49.956 -69.7654
-112.052 42.0873 -66.5994
-111.044 44.9327 -64.926
-240.023 -12.7422 -22.9848
196.861 -24.8487 48.804
196.965 -21.1194 50.4803
200.239 -18.6323 49.8787
-139.941 -58.0791 -44.4207
-142.114 -55.8124 -46.4362
-162.244 -60.7771 28.7644
-166.413 -60.3423 26.6892
-214.258 -30.3442 -34.6825
-214.607 -27.0815 -37.0395
-152.892 -55.113 -42.9491
-149.087 -54.42 -45.4008
-194.621 -15.0151 -53.6767
-192.468 -17.8125 -53.7717
-154.141 -57.2051 39.5307
-157.659 -57.1769 37.8369
-62.2184 80.4019 -28.3829
-59.1557 81.5381 -25.8284
-209.518 37.4819 31.0589
-205.688 39.7951 31.3151
-54.2309 81.9399 -25.8804
-33.2822 85.5033 -17.2502
-225.161 37.7329 -10.6452
-247.543 -11.7921 -10.1343
-38.9211 84.2051 -21.6342
-36.9096 85.048 -18.5485
-244.599 -6.40292 -19.4458
-212.571 19.2794 42.8964
-207.36 6.13287 -49.4177
-205.303 9.61472 -49.9119
-204.959 3.99537 50.8426
-205.305 7.51616 50.2696
-245.077 -9.9289 -17.0853
-204.788 30.5592 40.9346
-243.093 -19.8738 10.6815
-240.62 -23.9234 9.12048
-204.373 -12.7669 49.672
-249.722 -10.0246 -2.93687
-82.6031 58.4648 -59.0803
-78.8747 57.316 -60.8046
-248.286 -13.9138 -1.74712
-93.3887 77.2679 -26.5687
-112.806 -67.3003 40.7028
-108.867 -67.033 42.4209
-90.1586 76.6093 -29.6618
-203.392 -9.20638 50.9364
67.8533 8.4423 -84.3152
-57.7284 -37.8705 -76.8233
-58.1742 -31.3016 -79.6861
-55.8758 -35.0094 -78.3333
-215.321 -19.8178 -40.9265
-166.792 65.4236 -7.602
163.99 66.5349 4.96218
163.382 66.3486 8.58657
-162.976 66.5774 -7.71555
-215.537 -15.4665 -42.6277
-219.138 -13.4382 -41.0384
-138.921 -71.8213 14.9301
-135.013 -73.0258 13.3988
-232.015 -33.5076 -5.54003
-235.765 -29.9721 -6.35338
-239.066 -0.841384 -27.3148
-236.352 -2.8169 -29.9464
-27.5339 87.4657 0.962853
-31.6366 87.2939 1.11126
-233.584 -0.201822 -32.6183
-210.755 30.0071 37.4898
-201.15 46.4419 -25.1684
-197.776 48.5401 -24.4738
-208.647 28.5017 40.0226
-212.558 22.7638 41.1619
-209.83 25.1583 41.4804
28.3776 14.169 -86.2824
-137.466 69.4779 -24.5613
-46.1513 84.2368 19.6824
-42.1916 84.2864 20.5391
-212.046 -46.1452 10.4732
-208.728 -48.1281 9.68004
-64.8068 58.0842 -62.0969
1.5619 -8.79639 87.5575
-67.7802 56.771 -62.9173
-133.851 69.9692 -25.5897
-201.826 -15.5251 50.1589
144.788 -71.1132 10.9702
142.573 -71.2014 13.6281
-217.511 43.0586 -9.88214
-82.6693 -7.23776 82.7943
-87.4224 -72.1159 40.0949
-90.8557 -71.7981 39.7291
-145.983 56.7651 -43.7335
-142.539 56.2589 -45.7327
-214.119 -45.5705 7.36644
-225.333 -24.0847 -30.7818
-160.446 62.8128 -25.4332
-155.928 64.1905 -25.4333
-220.359 -27.6783 -32.1388
-223.139 -27.2526 -30.0889
-193.766 55.8824 -4.94696
-189.618 57.5937 -4.9988
48.4422 75.4795 -41.9469
-195.074 -7.94523 -54.9718
-182.898 54.1595 -26.744
-179.419 55.5522 -26.7724
-227.4 23.6689 29.2033
-228.309 20.1255 30.9401
-162.257 3.21719 -67.1594
-162.731 -1.16305 -67.0859
-104.503 70.5798 -37.755
-107.614 71.6235 -34.5867
-194.409 -43.2095 -35.3513
-198.105 -41.4409 -34.9546
-72.0357 81.7061 -20.8041
-68.8417 81.4528 -23.0047
-193.103 -11.2479 -55.2467
45.4541 74.7385 -43.6487
-99.8856 67.4857 44.3641
-99.8434 69.7566 40.713
-220.11 41.9705 -7.13411
42.3528 75.5604 -42.603
-83.3259 -79.9815 -22.2912
-81.7975 -77.8894 -29.293
-84.2147 -78.7133 -26.0753
-120.656 68.5276 35.576
-120.121 66.7057 39.0869
-217.098 -3.66671 44.2741
116.479 22.8209 -74.5799
112.977 25.4435 -74.3905
81.0252 -21.2411 80.5546
79.7565 -18.0324 81.4864
-218.481 -7.81049 42.8823
148.97 -8.24737 70.4202
144.978 -7.79067 71.4841
-69.4016 58.8271 60.7756
-74.4539 53.2926 65.0016
-177.696 -21.2555 -58.535
16.1419 -18.2726 -85.8965
-175.774 -24.3751 -58.0273
-41.7683 -23.1404 83.6357
-45.6762 -22.5351 83.5508
-139.191 65.5489 -32.7924
75.3071 -17.0304 82.217
-141.747 66.1173 -30.2095
-71.2543 55.4993 63.5785
22.7958 24.1728 84.2381
-195.22 7.36619 -54.9893
177.388 -18.8687 -59.4601
180.034 -16.9511 -59.0627
-156.847 59.6122 34.3288
42.5749 3.50653 -86.659
-155.497 57.6835 38.1617
-223.27 39.86 -7.21739
12.9895 15.875 86.4368
17.4112 15.5084 86.4082
-5.62842 -25.3421 -84.249
-1.51719 -25.739 -84.15
-58.0815 79.3379 32.1946
162.621 -66.7856 -6.77908
161.136 -66.8244 -9.9815
-55.3008 80.5379 29.7191
-50.8764 81.2234 28.8072
51.8995 -71.2264 48.3841
52.3647 -73.5266 44.7451
-209.111 18.172 45.3893
-209.872 13.9756 46.4338
-207.493 12.3866 48.1613
-179.209 58.737 19.0258
-233.7 -11.1921 30.5302
-183.117 57.329 18.764
-184.893 57.6041 15.5052
-147.992 -39.8388 -58.9528
-147.28 -43.0496 -56.8774
-82.9737 -41.1896 -72.1424
-143.072 -66.1081 29.4556
-146.824 -65.768 27.9161
-80.2027 -43.8423 -70.9529
-76.4029 -42.5452 -72.2442
-164.906 63.4065 19.8559
-160.775 64.5127 20.432
-163.311 47.8125 -46.8261
-166.88 50.6532 -42.056
-200.086 37.9583 -37.44
-166.986 47.7487 -45.2789
-248.043 -7.1229 12.6758
-212.256 38.153 27.7946
-189.866 -6.56611 57.3355
-184.351 -11.3527 58.7731
-150.178 -44.9857 -54.3971
-188.716 -11.0016 57.1207
71.0731 65.0097 53.8451
92.9306 -74.7186 33.2235
96.8952 -73.3718 34.801
-201.571 52.625 -0.35685
-199.855 53.3199 -3.29413
74.9142 63.6317 54.8444
-207.849 -14.1096 47.4951
-211.289 -10.8637 46.4789
-215.823 39.8897 21.2146
216.009 -43.7319 -10.9059
-246.874 12.2904 11.4547
-162.95 63.4476 -21.6228
-195.975 -53.6958 -12.5962
-247.249 5.72441 15.0603
-248.177 8.09942 11.7322
-224.8 -29.487 -26.2201
230.938 20.0844 28.4798
233.479 17.4675 27.6567
-20.9236 -2.28585 -87.6651
230.456 23.86 25.9309
-19.0568 76.7053 42.6126
-16.3336 75.495 44.8535
118.25 -31.0107 71.2067
121.165 -32.7296 69.8238
-12.1226 76.5164 43.258
-196.445 -50.0453 -22.6891
-199.785 -47.9602 -23.6032
-103.535 -26.4701 -75.703
-221.938 23.6208 33.9933
-100.485 -29.7359 -74.9905
-96.6799 -28.0492 -76.2422
74.9963 -76.1073 -35.5399
83.0637 -75.181 -35.3144
79.1851 -74.7442 -37.2777
30.4583 0.572724 87.3504
-236.579 1.79779 29.8055
-219.767 -27.321 32.9316
-233.981 4.82762 31.9055
-160.647 65.2275 -18.1588
108.017 -79.3118 -5.01617
110.342 -79.0634 -1.52952
-123.296 -32.2436 -69.5929
-122.277 -35.5966 -68.1642
-191.348 -14.4229 55.2566
-186.067 -21.2489 55.2615
-153.324 -21.0115 66.516
50.0364 -6.28959 86.0112
[...]
POINT_DATA 9548
VECTORS F double
3.89715e-07 2.59281e-07 3.74541e-08
-5.96332e-08 3.73502e-07 -1.34428e-09
3.72788e-07 2.71951e-07 4.26659e-08
-3.61407e-07 1.80356e-07 -7.42761e-08
-3.61356e-07 1.86126e-07 -7.43253e-08
-2.81371e-07 2.80505e-07 -5.43085e-08
-2.88294e-07 2.68699e-07 -5.93197e-08
-1.57513e-07 3.50011e-07 -1.44079e-09
-1.34898e-07 3.48739e-07 -7.63208e-12
-6.40486e-08 3.76813e-07 -2.37069e-09
-3.30019e-07 2.42856e-07 -6.54328e-08
1.64049e-07 3.086e-07 2.4697e-08
3.35851e-07 -1.03088e-07 -4.83021e-08
3.37461e-07 -1.02155e-07 -4.20265e-08
-3.25463e-07 2.52498e-07 -5.94437e-08
4.46619e-07 1.47528e-07 -3.90954e-08
-4.54064e-07 -2.91451e-08 -1.21199e-08
-4.64221e-07 -2.41474e-08 -1.81581e-08
4.75648e-07 1.32456e-07 -2.1613e-08
-4.36263e-07 1.05169e-07 -6.0479e-08
-4.40806e-07 1.05032e-07 -6.32343e-08
-1.90152e-07 -4.89167e-08 -2.92488e-09
2.31681e-07 3.33423e-07 3.13983e-08
-3.60819e-07 2.07418e-07 -4.13739e-09
-4.69028e-07 -3.60355e-08 -1.37252e-08
-1.46399e-07 -3.20114e-08 1.5255e-09
-4.66951e-07 -3.94688e-08 -1.20621e-08
-9.43467e-08 2.94873e-07 -3.34101e-08
-7.52723e-08 3.08458e-07 -2.74034e-08
-3.23685e-07 1.29552e-07 2.82468e-08
-3.23641e-07 1.34819e-07 2.69255e-08
-2.78482e-07 1.91175e-07 3.19574e-08
5.17813e-07 -5.89298e-09 3.22272e-08
-7.48924e-08 3.26149e-08 2.10115e-10
-7.77457e-08 2.45901e-08 -1.16901e-09
5.48962e-07 -1.84268e-09 4.49716e-08
-2.75664e-07 1.92815e-07 3.04828e-08
-3.60181e-07 2.07757e-07 -7.2692e-09
1.73231e-07 2.99792e-07 -5.19894e-10
4.9292e-07 1.74953e-07 3.7982e-08
4.87893e-07 1.81922e-07 3.44898e-08
1.7737e-07 2.97836e-07 -2.34045e-09
2.44872e-07 2.8253e-07 -4.84179e-09
6.25955e-07 1.27333e-07 1.20386e-07
6.12754e-07 1.30191e-07 1.15429e-07
-8.10527e-08 5.81385e-08 1.69965e-09
3.81647e-07 1.9936e-07 -5.42854e-09
1.84041e-08 2.97684e-07 8.50628e-09
-5.28881e-07 -1.6299e-08 -2.38757e-08
-5.31556e-07 -1.64363e-08 -2.60882e-08
6.08009e-08 2.98496e-07 1.16975e-08
-3.72173e-07 2.1235e-07 -7.62338e-08
-4.54119e-07 1.03192e-07 -6.60152e-08
-4.66295e-07 9.39412e-08 -6.0998e-08
-4.63183e-07 1.05177e-07 -6.84498e-08
-4.55125e-07 1.06194e-07 -6.52211e-08
-3.71489e-07 2.12011e-07 -7.03161e-08
4.86879e-07 1.90108e-07 4.13969e-08
4.91973e-07 1.83336e-07 4.51523e-08
6.36646e-07 1.02538e-07 4.52409e-08
6.33366e-07 1.06758e-07 4.26896e-08
-4.36986e-07 1.62756e-07 -7.39627e-08
-4.39444e-07 1.54088e-07 -7.17518e-08
-3.32705e-07 -7.70846e-08 6.38638e-09
-3.30391e-07 -7.48141e-08 2.54819e-09
-1.53054e-08 2.44566e-07 6.99527e-09
-5.76835e-08 2.47997e-07 7.53653e-09
-1.64643e-07 3.12883e-07 -4.10598e-08
-1.05893e-07 3.69048e-07 -2.42721e-08
3.04151e-07 -1.60724e-07 3.40748e-08
3.06017e-07 -1.62021e-07 3.68849e-08
4.11547e-07 1.75894e-07 1.42117e-07
4.40564e-07 1.61422e-07 1.38376e-07
3.07247e-07 -1.56553e-07 4.03456e-08
4.28398e-07 2.25782e-07 5.33331e-08
-4.51206e-09 -1.02059e-09 -3.13603e-10
2.92815e-07 -1.49328e-07 -1.74494e-08
3.0602e-07 -1.42009e-07 -9.31802e-09
2.92224e-07 -1.52756e-07 -1.17945e-08
-5.30559e-07 -1.39034e-08 -2.42745e-08
-5.23922e-07 -1.45001e-08 -2.23654e-08
-5.33006e-07 -1.0366e-08 -2.40201e-08
-1.05201e-07 3.28821e-07 -3.03304e-08
-2.56253e-08 -3.62257e-08 -4.71946e-09
-1.24412e-07 3.31916e-07 -3.74271e-08
-2.83053e-07 2.61172e-07 -6.47332e-08
-2.86889e-07 2.51764e-07 -7.0484e-08
4.24336e-07 1.94059e-07 1.43236e-07
4.10382e-07 2.06004e-07 1.43767e-07
-1.63663e-07 3.23513e-07 -3.87121e-08
3.03763e-07 3.1058e-07 1.67576e-08
2.74054e-07 2.53334e-07 9.47898e-08
2.73781e-07 2.58277e-07 1.05321e-07
-4.93233e-07 1.08883e-07 -2.86447e-08
2.53088e-07 2.64144e-07 9.34614e-08
-4.99336e-07 1.07618e-07 -2.21109e-08
3.23481e-07 2.95845e-07 1.00525e-08
3.45972e-07 2.8648e-07 2.07799e-08
-2.54464e-07 -2.33499e-07 -5.27796e-09
-2.36979e-07 -2.39392e-07 -8.66952e-09
1.31785e-07 2.22916e-07 -1.16843e-08
1.14206e-07 2.36654e-07 -9.16416e-09
1.93114e-07 1.87781e-07 -5.05452e-08
1.87369e-07 1.81167e-07 -4.29895e-08
-4.91622e-07 5.70949e-08 -4.85907e-08
1.20119e-07 2.66666e-07 -6.9855e-09
-1.42123e-07 -2.69009e-07 1.14174e-08
-1.62762e-07 -2.71666e-07 1.32239e-08
-3.31216e-07 1.83017e-07 -6.30293e-08
-3.4488e-07 1.83828e-07 -7.02898e-08
3.70088e-07 2.29357e-07 3.44523e-09
-4.90302e-07 5.47654e-08 -4.92051e-08
-3.7055e-07 1.66483e-07 -6.79782e-08
-3.69318e-07 1.66333e-07 -7.08758e-08
-4.8086e-07 5.40703e-08 -4.57492e-08
-2.16589e-07 3.02917e-07 -5.1842e-08
2.68081e-07 2.7194e-07 5.64829e-08
3.23757e-07 2.56567e-07 7.35402e-08
-5.03085e-07 9.01132e-08 -1.86392e-10
-5.05166e-07 8.45657e-08 -6.26208e-09
-4.35056e-07 1.19008e-07 2.07174e-08
-4.25383e-07 1.29102e-07 2.8563e-08
3.0455e-07 2.53621e-07 6.14843e-08
2.73215e-07 2.6755e-07 6.46473e-08
-2.23955e-07 1.51138e-07 -2.60182e-08
-2.26427e-07 1.51143e-07 -2.79845e-08
3.367e-07 2.45438e-07 -7.97256e-10
1.22617e-07 3.20888e-07 2.12397e-08
1.42989e-07 3.06447e-07 2.67259e-08
-5.14514e-07 9.31958e-08 -6.34186e-08
-5.15393e-07 9.49637e-08 -6.61847e-08
3.28862e-07 2.39565e-07 4.28638e-09
-3.19607e-07 2.09651e-07 9.69392e-09
-3.629e-07 1.84734e-07 1.12858e-09
-3.52475e-07 1.96699e-07 8.35549e-09
-5.44626e-07 3.73498e-08 -1.86099e-08
-5.44358e-07 3.95361e-08 -2.12504e-08
-5.45622e-07 4.33241e-08 -2.10973e-08
4.22207e-07 2.32866e-07 4.56982e-08
-5.76083e-09 3.30686e-07 -1.62085e-08
-4.58441e-08 3.18507e-07 -2.07101e-08
4.04363e-07 2.43614e-07 5.17967e-08
-1.56216e-07 3.34182e-07 -4.05765e-08
-3.647e-07 2.05954e-07 -7.32675e-08
-3.65453e-07 2.0796e-07 -7.91077e-08
-2.37332e-07 1.71022e-07 2.39213e-08
-2.50506e-07 1.57082e-07 2.36308e-08
-3.65963e-07 1.35122e-07 -5.70271e-08
-3.65534e-07 1.28887e-07 -5.64971e-08
2.76841e-07 2.53007e-07 1.02862e-07
3.16457e-07 2.4198e-07 1.012e-07
-1.28635e-07 3.55018e-07 -3.23542e-08
-1.84783e-07 -2.02186e-07 -1.16883e-08
-1.58656e-07 -2.03129e-07 -9.19225e-09
-1.48173e-07 -2.14599e-07 -7.33629e-09
-3.99596e-07 1.81157e-07 -8.27348e-08
-3.84993e-07 1.9281e-07 -8.74894e-08
-4.2267e-07 1.44513e-07 1.3466e-08
-4.20179e-07 1.43515e-07 3.72121e-09
-2.51395e-07 2.81645e-07 -5.62754e-08
-2.17551e-07 2.87649e-07 -5.59928e-08
-3.74794e-07 1.91046e-07 -8.18054e-08
-3.76046e-07 1.97082e-07 -8.50503e-08
-1.07531e-07 3.04781e-07 -3.75237e-08
-1.21815e-07 2.91835e-07 -4.32921e-08
-3.94577e-07 1.49557e-07 2.80575e-08
-3.93108e-07 1.46924e-07 2.14816e-08
6.65584e-07 1.03733e-07 1.15221e-07
6.86232e-07 9.23803e-08 9.92121e-08
3.33393e-07 2.2716e-07 1.21206e-09
3.40506e-07 2.19219e-07 -4.7596e-09
6.88652e-07 9.15788e-08 1.13276e-07
7.53648e-07 5.32802e-08 8.60674e-08
3.63919e-07 2.75817e-07 3.52562e-08
-1.33904e-07 3.67253e-07 -2.68922e-08
7.28154e-07 6.69164e-08 1.00071e-07
7.4685e-07 5.98816e-08 9.2616e-08
-6.42454e-08 3.69212e-07 -2.26364e-08
1.707e-07 2.5258e-07 -9.95599e-09
6.32567e-08 3.24097e-07 7.72412e-09
9.09396e-08 3.10904e-07 1.40934e-08
3.66286e-08 2.48948e-07 -1.48484e-09
7.35781e-08 2.53835e-07 -1.16198e-09
-1.06896e-07 3.69757e-07 -2.71536e-08
2.61716e-07 2.3489e-07 -1.50538e-08
-2.14006e-07 3.21423e-07 1.74765e-09
-2.47745e-07 3.01513e-07 -9.33768e-09
-9.85758e-08 2.51418e-07 1.49649e-08
-1.20908e-07 3.73589e-07 -1.6529e-08
4.15433e-07 2.04846e-07 1.31599e-07
4.16809e-07 2.07657e-07 1.29547e-07
-1.62233e-07 3.56421e-07 -1.58215e-08
6.12837e-07 1.26858e-07 1.05202e-07
-4.54484e-07 1.03234e-07 1.64834e-08
-4.55407e-07 1.05083e-07 2.2963e-08
6.18205e-07 1.30768e-07 1.07687e-07
-6.21598e-08 2.44409e-07 1.37875e-08
-1.06261e-09 -7.42783e-08 -7.54219e-09
-3.05207e-07 1.52716e-07 -4.72036e-08
-2.66824e-07 1.65889e-07 -4.13147e-08
-2.91537e-07 1.48806e-07 -4.10457e-08
-1.64344e-07 3.03793e-07 -4.12481e-08
5.26213e-07 1.70026e-07 4.97524e-08
3.70563e-07 -1.14321e-07 3.3542e-08
3.69503e-07 -1.15882e-07 3.4641e-08
5.30009e-07 1.652e-07 5.48457e-08
-1.16185e-07 3.0915e-07 -4.02458e-08
-1.11741e-07 3.13736e-07 -2.96834e-08
-4.87036e-07 1.13061e-07 -1.09421e-08
-4.89274e-07 1.07663e-07 -1.68165e-08
-3.09257e-07 2.68251e-07 -3.67833e-08
-2.9234e-07 2.89754e-07 -3.87505e-08
-2.02881e-09 3.61364e-07 -8.95896e-09
-1.53403e-08 3.52188e-07 -1.83074e-08
7.85156e-07 2.98595e-08 3.64309e-08
7.82592e-07 3.43532e-08 2.91419e-08
4.60656e-09 3.47362e-07 -6.1901e-09
2.65816e-07 2.4263e-07 -1.12502e-08
4.01971e-07 2.42465e-07 5.40842e-08
4.10222e-07 2.32526e-07 5.53172e-08
2.56385e-07 2.36533e-07 -4.8037e-09
2.08468e-07 2.54494e-07 -8.94404e-09
2.2083e-07 2.44241e-07 -1.13699e-08
-2.782e-09 -4.15915e-09 -7.952e-10
5.41675e-07 1.57952e-07 7.56383e-08
7.43346e-07 4.85883e-08 5.44831e-09
7.48766e-07 4.76871e-08 -7.38045e-09
-3.74928e-07 2.08012e-07 -1.28619e-08
-3.79523e-07 1.98091e-07 -1.703e-08
3.86639e-07 2.06562e-07 1.43811e-07
-1.52742e-07 6.55571e-09 9.92283e-10
3.90883e-07 2.01689e-07 1.30432e-07
5.47579e-07 1.60605e-07 8.84712e-08
-1.13776e-07 2.35076e-07 1.67114e-08
-4.19812e-07 -1.06887e-07 -1.45193e-08
-4.22358e-07 -1.06456e-07 -1.52215e-08
4.01408e-07 2.574e-07 3.98431e-08
-1.22307e-07 1.74004e-07 2.59822e-10
-4.83444e-07 7.93365e-08 1.36439e-08
-4.84324e-07 8.05658e-08 9.99501e-09
4.33691e-07 2.05107e-07 8.89855e-08
4.37704e-07 2.09451e-07 9.0637e-08
-3.70024e-07 2.09891e-07 -1.83554e-08
-2.12487e-07 3.06747e-07 -4.95718e-08
5.02207e-07 1.82892e-07 6.38094e-08
5.05424e-07 1.78763e-07 7.18006e-08
-2.34334e-07 2.94421e-07 -5.68489e-08
-2.33542e-07 2.89544e-07 -5.02083e-08
4.70025e-07 2.03355e-07 4.31792e-08
4.75472e-07 1.95678e-07 4.63572e-08
4.63809e-07 -5.42884e-08 -3.21098e-08
-5.18516e-08 3.14318e-07 -2.29022e-08
4.46785e-07 2.13781e-07 5.8842e-08
4.50469e-07 2.09151e-07 6.43799e-08
2.37092e-07 2.78123e-07 6.16219e-10
1.98898e-07 2.83315e-07 -4.59581e-09
2.45024e-08 3.02549e-07 7.24543e-09
-2.15377e-08 3.05504e-07 1.09966e-09
5.52809e-07 1.60937e-07 1.13522e-07
5.51926e-07 1.57846e-07 1.16625e-07
-3.20753e-07 2.36699e-07 -7.3357e-08
-3.18469e-07 2.44597e-07 -6.90089e-08
6.76549e-07 9.87206e-08 1.0091e-07
6.81707e-07 1.0011e-07 1.04699e-07
-7.60091e-08 2.98316e-07 -2.82088e-08
4.62887e-07 -5.34625e-08 -3.2527e-08
5.24792e-07 1.16396e-07 -3.23989e-08
5.54953e-07 1.167e-07 -3.33291e-08
3.92162e-07 2.57516e-07 3.36381e-08
4.63738e-07 -4.92365e-08 -3.08835e-08
-5.25579e-07 8.40008e-08 -6.0865e-08
-5.1374e-07 9.03581e-08 -6.46262e-08
-5.15473e-07 8.86787e-08 -6.3871e-08
5.38697e-07 1.24773e-07 -1.66626e-08
5.20322e-07 1.22376e-07 -1.3075e-08
-2.22401e-08 2.6818e-07 8.85965e-09
1.06026e-07 -1.25675e-07 -1.81823e-08
1.09259e-07 -1.19397e-07 -2.05219e-08
-1.92664e-07 -1.15627e-07 -6.76329e-09
-1.70704e-07 -1.06797e-07 -3.17771e-09
-6.56106e-08 2.79453e-07 9.97396e-09
-8.23081e-08 -1.75741e-07 7.35333e-10
-8.38641e-08 -1.80049e-07 1.20134e-09
4.29442e-07 1.40826e-07 -7.62716e-08
3.75822e-07 1.61838e-07 -7.99824e-08
-1.55778e-07 2.90188e-07 -4.74775e-08
-1.9066e-07 1.83529e-08 -8.29087e-09
-1.74642e-07 2.76304e-07 -5.12975e-08
-2.32028e-07 8.5679e-08 9.51906e-09
-2.32921e-07 8.85458e-08 8.29272e-09
5.14622e-07 1.74335e-07 8.10443e-08
-1.72599e-07 -1.09528e-07 -3.33222e-09
5.10981e-07 1.70898e-07 8.0494e-08
3.81614e-07 1.56413e-07 -8.41751e-08
4.87861e-08 -2.87686e-08 6.63915e-09
6.5976e-08 3.17126e-07 1.38045e-08
-1.19e-07 -1.54618e-07 5.60076e-09
-1.13426e-07 -1.59733e-07 3.51368e-09
4.6187e-07 1.53439e-07 -8.08529e-09
-5.78814e-08 -3.18585e-08 -4.77073e-09
4.43184e-07 1.48067e-07 -2.72192e-09
3.82885e-07 2.68245e-07 3.13109e-08
-1.25102e-08 -8.61613e-09 1.81269e-09
-1.16274e-08 -1.14599e-08 2.34375e-09
-2.34259e-07 5.67995e-08 -1.51693e-08
-2.33101e-07 5.41644e-08 -1.60529e-08
6.60492e-07 7.85959e-08 -4.77997e-08
-4.01444e-07 -1.19139e-07 -5.29589e-09
-4.01612e-07 -1.17632e-07 -6.23967e-09
6.86402e-07 6.8378e-08 -2.89284e-08
6.87415e-07 6.6768e-08 -3.96198e-08
-4.45252e-07 -5.54833e-08 -2.32039e-08
-4.60524e-07 -5.61279e-08 -2.62476e-08
1.67641e-07 2.48461e-07 -4.91526e-09
1.22221e-07 2.53539e-07 -8.67693e-09
1.1703e-07 2.48946e-07 -2.2959e-09
4.70848e-07 1.70205e-07 1.75236e-08
-1.10221e-07 2.99062e-07 6.33985e-09
4.66942e-07 1.74986e-07 2.32706e-08
4.67176e-07 1.77706e-07 2.18448e-08
-2.78095e-07 2.36738e-07 -7.45109e-08
-3.07212e-07 2.27995e-07 -7.51714e-08
-3.14458e-07 1.87039e-07 -6.25107e-08
-4.49603e-07 1.25273e-07 1.37899e-08
-4.48176e-07 1.25076e-07 6.0796e-09
-3.27997e-07 1.71621e-07 -6.0654e-08
-3.26768e-07 1.7346e-07 -5.98427e-08
5.04447e-07 1.53147e-07 2.38752e-08
5.08919e-07 1.49877e-07 1.70564e-08
3.76874e-07 2.35371e-07 7.94078e-08
4.06544e-07 2.27074e-07 7.59898e-08
3.25551e-07 2.66833e-07 5.75222e-08
3.7254e-07 2.28795e-07 7.30668e-08
-8.31648e-08 3.62243e-07 4.31839e-09
3.36892e-07 2.31264e-07 -2.47271e-09
-4.20146e-08 2.40839e-07 1.05476e-08
-7.93755e-08 2.36861e-07 1.52708e-08
-3.11237e-07 2.23904e-07 -7.99675e-08
-8.05029e-08 2.29012e-07 1.15464e-08
3.44142e-07 -1.03447e-07 6.92826e-08
-4.47758e-07 -7.97042e-08 -2.59152e-08
-4.43498e-07 -8.52227e-08 -2.84976e-08
4.49217e-07 2.10914e-07 3.743e-08
4.559e-07 2.11674e-07 3.98549e-08
3.42662e-07 -1.10059e-07 7.03883e-08
-1.00956e-07 2.44454e-07 1.85312e-08
-8.57567e-08 2.61779e-07 1.34587e-08
3.63261e-07 2.35335e-07 9.95319e-09
-3.03894e-07 -1.84878e-07 4.42352e-09
1.45571e-07 3.56802e-07 1.29388e-09
5.04137e-07 1.81357e-07 6.70179e-08
-4.05826e-07 1.94221e-07 -5.49174e-08
6.79119e-08 3.58908e-07 8.93611e-11
9.72323e-08 3.69369e-07 -3.1641e-09
-2.54564e-07 2.88167e-07 -5.68636e-08
1.31973e-07 -2.44558e-07 4.14498e-08
1.2032e-07 -2.56273e-07 3.75e-08
-1.20103e-07 1.05965e-07 7.46401e-10
1.66779e-07 -2.39949e-07 3.9319e-08
5.91865e-07 7.37001e-08 -1.00259e-07
5.87362e-07 7.12176e-08 -9.36829e-08
-2.24254e-07 -1.37804e-07 -1.44197e-08
-2.24919e-07 -1.38794e-07 -1.72739e-08
5.82047e-07 7.43235e-08 -1.11496e-07
-3.75706e-07 2.1135e-07 -6.79208e-08
-3.69767e-07 2.22987e-07 -6.99092e-08
-2.24518e-07 2.42436e-07 -4.71759e-08
2.26848e-07 2.61209e-07 -1.76126e-10
-2.41539e-07 2.23674e-07 -4.90685e-08
-2.40934e-07 2.28653e-07 -4.67158e-08
-4.48821e-07 -4.92554e-08 -1.04761e-08
-4.4112e-07 -5.55513e-08 -8.76682e-09
-4.43919e-07 -5.43818e-08 -6.40954e-09
-9.00548e-08 -4.80544e-08 4.15964e-09
2.63405e-08 3.1737e-07 6.45848e-09
-2.27688e-07 2.45786e-07 1.78836e-08
5.00761e-08 3.07376e-07 -1.5443e-09
5.21797e-07 1.74318e-07 6.09941e-08
-4.63927e-07 -7.64745e-08 -1.39361e-08
-4.60108e-07 -7.83272e-08 -1.49676e-08
-2.45867e-07 2.44072e-07 -5.97524e-08
-2.72996e-07 2.32943e-07 -6.16911e-08
-1.00104e-07 2.36903e-07 1.93958e-08
-1.45928e-07 2.21801e-07 2.5131e-08
-1.57003e-07 2.05827e-07 2.07101e-08
-1.18148e-07 -8.46111e-08 2.22777e-09
-1.14122e-07 -9.01807e-08 4.01802e-09
4.63829e-07 6.46204e-08 -8.55198e-08
4.64688e-07 6.51114e-08 -7.87079e-08
-1.62116e-07 1.96362e-07 2.35585e-08
-1.4448e-07 2.25509e-07 1.67309e-08
-5.38858e-07 4.87543e-08 -4.80997e-08
3.16946e-07 2.47317e-07 8.53227e-08
-5.44161e-07 4.4805e-08 -4.45956e-08
2.45025e-08 2.63508e-07 2.859e-08
3.80493e-08 2.7605e-07 3.93344e-08
-5.44546e-07 4.46606e-08 -4.29342e-08
-4.31458e-08 2.35933e-07 6.466e-09
-5.88302e-08 2.458e-07 1.35684e-08
3.53936e-07 2.74191e-07 3.99239e-08
6.41898e-07 1.12887e-07 1.02143e-07
4.41199e-07 2.19605e-07 4.62893e-08
3.26214e-07 2.8206e-07 4.43787e-08
-1.00794e-07 2.19674e-07 1.85332e-08
5.70263e-07 -5.73823e-08 -3.36704e-09
5.7461e-07 -5.43241e-08 5.0965e-09
1.21931e-07 -1.77251e-07 -1.70188e-08
1.31382e-07 -1.65371e-07 -1.79234e-08
3.59134e-07 2.75959e-07 4.28217e-08
3.2313e-07 2.01179e-07 -4.48057e-09
-1.16423e-07 2.78302e-07 1.36076e-08
2.98972e-07 2.17163e-07 -1.27261e-08
6.01911e-07 -3.18094e-08 -2.09377e-09
5.93172e-07 -4.17124e-08 -2.31853e-08
3.48276e-07 2.52701e-07 6.94115e-08
-1.56332e-07 -2.26518e-08 -4.76102e-09
3.20202e-07 2.50051e-07 5.96102e-08
3.21232e-07 2.66621e-07 4.95171e-08
-5.37945e-07 3.49815e-08 -4.25742e-08
-5.35262e-07 4.02901e-08 -4.60967e-08
-4.77368e-07 7.46374e-08 1.30208e-08
-4.80508e-07 6.76717e-08 8.19857e-09
-5.29056e-07 4.22379e-08 -4.6185e-08
-5.37066e-07 7.18078e-08 -4.64645e-08
-5.38768e-07 6.98339e-08 -4.50108e-08
-3.35592e-07 1.95666e-07 1.67016e-08
-3.33493e-07 1.94504e-07 7.81273e-09
5.25369e-07 1.68951e-07 6.63892e-08
1.59889e-07 1.87716e-07 7.87991e-08
1.15485e-07 1.81106e-07 6.83776e-08
3.45524e-07 -1.31838e-07 4.6102e-08
3.47364e-07 -1.25855e-07 4.44448e-08
-1.95546e-07 -2.50591e-07 1.48753e-08
-2.14594e-07 -2.36091e-07 1.23324e-08
1.04728e-09 3.7439e-07 9.28938e-10
-3.32192e-07 2.32074e-07 -2.71133e-09
1.9287e-07 3.35835e-07 2.6257e-08
-3.75073e-07 2.15427e-07 -6.26037e-08
-2.9065e-07 -1.09917e-07 8.68257e-09
-2.88315e-07 -1.08131e-07 6.0245e-09
-3.92035e-07 2.01374e-07 -6.16849e-08
6.13262e-07 1.27875e-07 1.29043e-07
-3.37021e-07 2.21812e-07 6.58271e-10
2.30926e-07 3.3354e-07 2.89959e-08
4.68707e-07 2.0442e-07 5.50162e-08
4.72632e-07 2.01563e-07 6.28371e-08
-3.46313e-07 -3.07551e-09 -1.3809e-08
-3.42073e-07 2.99847e-09 -1.57518e-08
-5.20366e-07 8.34563e-08 -2.61427e-08
-5.24751e-07 8.19345e-08 -2.02275e-08
4.87897e-07 1.91477e-07 5.52757e-08
1.93409e-07 -2.50653e-07 2.87273e-08
4.89142e-07 1.28402e-07 -2.7141e-08
5.27791e-07 1.27011e-07 -2.32418e-08
7.08393e-07 6.34016e-08 1.89482e-08
4.17159e-07 2.33193e-07 2.97375e-08
-1.56947e-07 2.3672e-07 2.35258e-08
-3.42432e-07 1.93609e-08 -2.03451e-08
-3.40034e-07 1.4695e-08 -1.89589e-08
6.9056e-07 7.00869e-08 2.09866e-08
4.17136e-07 2.2034e-07 2.20394e-08
4.24316e-07 2.10269e-07 2.2025e-08
6.96701e-07 6.98291e-08 3.3592e-09
1.58713e-07 -1.22866e-09 -3.18086e-09
-2.65822e-07 -1.56708e-07 1.04416e-08
-2.43134e-07 -1.53102e-07 8.98279e-09
2.84887e-07 2.69378e-07 5.46127e-08
2.87166e-07 2.68254e-07 6.08601e-08
2.7947e-07 2.75416e-07 5.12031e-08
2.39821e-07 2.88142e-07 4.44193e-08
2.15533e-07 3.05336e-07 4.52084e-08
-3.32925e-07 2.25981e-07 -8.01288e-08
-3.52299e-07 2.10477e-07 -7.36482e-08
-3.25659e-07 -1.83022e-07 -6.56987e-09
-3.18033e-07 -1.88326e-07 -1.31903e-09
3.2765e-07 2.58794e-07 5.63696e-08
-3.89716e-07 2.06436e-07 -5.49444e-08
6.37741e-07 8.53331e-08 -8.00719e-08
6.402e-07 8.04848e-08 -5.94231e-08
5.04017e-08 3.87253e-08 1.18313e-08
-1.17064e-07 2.95706e-07 -3.26766e-08
-1.8645e-07 2.15134e-07 2.16832e-08
-2.23909e-07 1.58268e-07 1.70078e-08
-1.34899e-07 -6.45244e-08 -2.6225e-09
-1.2731e-07 2.97313e-07 -4.15674e-08
-1.51098e-07 -1.677e-07 -1.2511e-08
-1.48668e-07 -1.68096e-07 -7.96314e-09
-7.05969e-08 2.97162e-07 -2.77559e-08
4.31979e-07 2.3098e-07 4.87761e-08
-9.18862e-08 -1.61116e-07 3.39159e-09
-9.28582e-08 -1.65145e-07 1.04502e-09
4.25556e-07 2.31771e-07 4.34214e-08
-6.52036e-08 3.53152e-07 -2.03949e-08
4.66786e-07 2.04658e-07 5.06626e-08
6.36131e-07 8.63135e-08 -7.66809e-08
-5.17808e-07 -7.78002e-09 -2.68015e-08
-5.10395e-07 -7.10216e-09 -2.63542e-08
-2.28196e-07 -6.84384e-08 2.1222e-09
-2.02153e-07 -6.55988e-08 8.46916e-10
5.81663e-07 1.00898e-07 -9.35882e-08
1.15465e-08 3.77284e-07 -8.69883e-09
7.52541e-08 2.35829e-07 -7.50789e-09
4.44739e-08 3.68097e-07 -2.3832e-09
1.96322e-07 2.69441e-07 7.67195e-08
1.8601e-07 2.80334e-07 7.15965e-08
3.54518e-07 -1.17524e-07 5.79055e-08
3.73403e-07 -1.1448e-07 5.48071e-08
1.82403e-07 2.70522e-07 7.06482e-08
3.39078e-07 2.7426e-07 5.79377e-09
3.54891e-08 2.25078e-07 -5.78088e-09
3.22104e-07 2.9067e-07 1.21768e-08
3.06133e-07 -9.17202e-08 5.54712e-08
3.38876e-07 -9.40367e-08 6.05067e-08
2.33784e-07 2.60735e-07 -7.65798e-09
2.03635e-07 2.50008e-07 -2.73176e-09
1.70388e-07 2.6733e-07 -1.01483e-08
-4.88701e-07 -5.19694e-08 -1.66396e-08
-4.92246e-07 -5.26578e-08 -1.59123e-08
4.69702e-07 -8.55023e-08 6.77225e-08
4.51094e-07 -8.70836e-08 6.55427e-08
3.9777e-08 2.75329e-07 3.51298e-08
7.79945e-08 2.83104e-07 4.38789e-08
1.60055e-07 2.74183e-07 -3.42931e-09
-4.21781e-07 -1.03884e-07 -8.82353e-09
-1.99844e-07 2.25832e-07 2.56326e-08
-2.32558e-07 2.16255e-07 2.04027e-08
-2.33956e-07 2.12644e-07 2.7063e-08
7.00608e-07 -3.59976e-09 1.05315e-07
6.47976e-07 -1.70467e-08 4.1891e-08
-3.943e-07 1.92455e-07 -7.93203e-08
-3.93218e-07 1.9056e-07 -7.25718e-08
-4.10764e-07 4.00208e-08 7.82084e-09
-4.00941e-07 3.52374e-08 4.6546e-09
3.26161e-07 2.99916e-07 3.10817e-08
3.37731e-07 2.90523e-07 3.93723e-08
-5.32619e-07 7.7043e-08 -5.30559e-08
3.63217e-07 2.77444e-07 3.32283e-08
-2.27407e-08 1.38829e-07 -2.1044e-08
8.64351e-08 -1.78592e-07 3.50094e-08
5.72755e-08 -1.86203e-07 3.41615e-08