# vtk DataFile Version 2.0
S, Created by Mohamad Ibrahim Cheikh
ASCII
DATASET UNSTRUCTURED_GRID
POINTS 9548 double
-209.623 46.745 -13.3831
-249.744 2.25074 10.134
-212.903 44.3816 -14.9934
-106.297 -46.5466 -64.7615
-110.138 -45.6858 -64.5886
-228.915 -26.793 -24.7082
-225.719 -29.3062 -25.4442
-249.519 -6.87459 8.6171
-248.774 -4.98892 11.9192
-250.728 1.97016 6.60361
-216.91 -36.9252 -24.9038
-204.571 22.9625 -45.7504
97.0209 59.5023 -55.2362
100.983 58.6074 -55.3235
-220.471 -34.605 -24.4019
-116.793 62.443 46.6352
39.8767 -75.1101 -43.6783
36.5544 -76.7906 -41.0317
-113.555 64.4202 44.8923
-66.5646 -60.5833 -59.4238
-69.2521 -62.4498 -57.0689
54.5087 -23.9472 -82.5031
-229.532 28.1495 -22.3909
-217.378 -40.6074 17.6013
48.5505 -79.4023 -33.9217
20.1965 -9.2004 87.232
52.281 -78.6964 -34.8746
-188.905 -8.04993 -57.5347
-190.554 -4.72358 -57.2376
-99.3008 -40.2528 70.1176
-103.276 -38.9012 70.1774
-181.37 -35.532 49.5391
36.4471 79.6585 -35.1552
9.09569 4.66632 -87.8185
12.8645 2.37074 -87.8528
36.1654 80.9482 -32.1131
-178.228 -34.2273 51.802
-219.129 -40.6997 14.4474
-229.956 22.2301 27.8523
-170.655 64.3733 5.87556
-174.893 62.9347 6.1949
-226.878 22.6792 30.4581
-224.007 30.078 26.379
-69.6933 80.0972 -27.0882
-69.3055 78.8958 -30.5186
-2.48416 4.10651 -87.8998
-186.267 50.1798 31.2763
-171.76 9.02245 -63.6454
4.39727 -85.8852 19.1144
5.52158 -86.6489 15.2394
-170.824 12.6356 -63.3381
-191.668 -46.7743 -32.5346
-70.1453 -64.7096 -54.3531
-68.4061 -66.9096 -51.9057
-76.8282 -66.5588 -50.9045
-75.0454 -64.5809 -53.701
-195.011 -46.1648 -30.9331
-177.111 62.4697 -1.05865
-172.803 63.9226 -1.42218
-93.4376 81.6271 3.48112
-97.5254 81.0307 3.68324
-162.648 -60.3846 -29.3065
-158.721 -62.1716 -28.1844
85.4989 -55.1347 -61.7186
89.6426 -55.3901 -60.7627
-199.247 1.92821 53.6646
-200.573 -2.20991 53.0454
-224.801 -13.1437 -37.2042
-248.357 -2.57064 -13.6287
209.344 47.0849 12.7095
206.919 47.3424 16.1494
-36.3405 65.7704 -57.0663
-33.7807 67.848 -54.7808
203.712 48.9774 16.2642
-190.558 54.7148 -17.452
23.1952 13.741 -86.5408
196.051 46.5849 -29.4638
194.025 49.0335 -27.0321
199.773 45.0832 -28.7295
0.274759 -85.4672 20.9605
0.217768 -84.3114 25.2106
-3.53164 -85.9371 18.9019
-228.65 -5.94776 -36.1645
42.0877 6.7693 -86.4945
-230.506 -8.01041 -34.2743
-207.51 -31.1402 -38.7605
-203.535 -33.5036 -39.3653
-58.01 65.2616 -55.4339
-60.8057 63.4065 -57.1922
-230.748 -11.8317 -32.9427
-231.797 34.0063 3.06794
-102.735 45.2807 -66.3435
-98.7812 46.8445 -65.992
-144.829 -71.7527 5.24491
-118.634 43.3652 -64.3456
-142.739 -71.9091 8.86735
-228.21 36.6806 4.73043
-224.84 39.3796 2.00908
228.516 -35.339 10.0933
230.343 -33.01 12.5869
-185.645 21.1689 55.4656
-189.073 18.2856 55.0719
-92.8619 36.7334 73.0678
-89.4302 34.2395 74.783
-45.3537 -73.9564 -44.9735
-213.67 18.2836 42.6636
240.151 -20.9922 -15.5705
240.177 -23.095 -12.1737
-98.1334 -40.0852 -70.4141
-100.304 -43.0524 -68.2549
-204.955 45.9406 22.1489
-41.3881 -73.851 -45.6104
-98.2782 -47.413 -65.6772
-93.4779 -47.5146 -66.4571
-39.3728 -71.9379 -48.7764
-231.228 -18.9819 -28.9442
-175.187 37.6823 -50.6617
-170.691 45.6982 -45.7013
-119.78 -73.5369 24.0787
-116.234 -74.7332 22.4692
-135.799 -61.5908 41.1436
-138.66 -59.2839 43.3071
-168.927 42.7508 -49.2206
-171.425 39.737 -50.6672
-50.186 -19.0533 -84.0988
-53.7818 -20.7797 -83.4151
-211.532 41.3602 23.5608
-203.423 18.8609 -48.1869
-200.52 21.6475 -48.5045
-101.017 -76.4258 -25.5689
-98.4562 -75.8512 -28.3514
-209.37 40.3405 27.3827
-215.268 -36.2867 27.4558
-205.653 -44.4843 24.2315
-208.651 -41.658 26.0496
-62.2871 -83.6386 16.5405
-64.971 -83.9294 13.5295
-69.4736 -83.4424 13.8003
-195.165 52.8945 -16.8186
-218.844 3.62907 -43.2122
-218.564 -0.631824 -43.5323
-198.299 50.6338 -19.1303
-239.445 -10.1868 -24.9162
-184.569 -47.181 -36.7052
-180.616 -47.5163 -38.6296
-110.483 -24.1611 75.2714
-108.201 -27.3367 74.5879
-66.8575 -46.1934 -71.1542
-62.8886 -47.0293 -71.0495
-105.879 47.2327 -64.3473
-104.106 49.7993 -62.7464
-241.709 -6.01875 -23.5584
193.375 -28.3766 48.586
193.942 -24.6811 50.297
197.392 -22.378 49.7284
-147.184 -54.4231 -46.1508
-149.033 -51.9146 -48.2656
-169.762 -57.8155 29.5472
-173.885 -57.4469 27.2402
-218.41 -24.9554 -35.7902
-218.085 -21.6089 -38.1332
-159.56 -51.3253 -44.6398
-155.796 -50.4503 -47.1921
-195.953 -9.1397 -54.4007
-194.07 -12.1777 -54.6316
-161.089 -53.9934 40.6408
-164.581 -54.0628 38.7938
-48.108 82.317 -26.164
-44.6219 83.2216 -23.9665
-202.776 41.8277 30.9889
-198.808 44.0098 31.1149
-39.6328 83.6084 -23.6924
-17.2172 86.4014 -15.5726
-217.913 42.7554 -10.1115
-249.299 -4.82743 -10.5663
-23.476 85.3909 -19.6195
-21.0227 86.0809 -16.7322
-245.046 0.520388 -19.8013
-208.768 24.2156 42.6801
-205.461 12.2134 -49.2597
-202.914 15.4484 -49.6425
-203.616 9.01456 50.8607
-203.246 12.5682 50.285
-246.31 -2.94438 -17.5391
-199.306 35.1215 40.5853
-246.489 -13.6778 10.8813
-244.73 -18.114 9.11936
-205.552 -7.63819 50.1278
-251.198 -2.92981 -3.16296
-73.5237 62.627 -56.2142
-69.7453 61.5533 -57.9624
-250.618 -7.09442 -1.96354
-80.6139 79.6386 -24.6183
-121.147 -64.939 41.5939
-117.222 -64.5961 43.463
-77.2169 79.0664 -27.6137
-203.909 -4.21942 51.3387
67.1647 6.83668 -84.5279
-63.6641 -34.3372 -77.902
-63.3481 -27.4529 -80.6165
-61.6012 -31.5073 -79.2887
-217.764 -14.002 -41.739
-156.275 68.6076 -6.85795
170.325 64.5154 5.47497
169.718 64.2965 9.13486
-152.367 69.6736 -6.87688
-217.053 -9.6056 -43.4024
-220.58 -7.47192 -41.6081
-147.833 -69.5613 15.151
-143.974 -70.886 13.4675
-237.356 -28.442 -6.12912
-240.756 -24.4647 -7.00011
-238.371 5.89874 -27.4335
-235.928 3.74243 -30.2537
-10.8328 87.9061 1.46333
-15.0078 87.8307 1.48065
-232.793 6.28287 -32.7061
-205.204 34.6932 37.2156
-193.099 50.8778 -24.2972
-189.563 52.8064 -23.5812
-203.279 33.0765 39.8851
-208.064 27.682 40.9588
-205.102 29.9109 41.2201
27.6436 14.1736 -86.3108
-126.422 72.4298 -23.2632
-30.6625 85.1275 19.5498
-26.5792 85.1433 20.2022
-218.653 -42.188 10.5287
-215.418 -44.3811 9.63929
-56.1095 62.39 -58.8731
-1.70365 -8.04205 87.6297
-59.0149 60.9927 -59.9791
-122.668 72.9744 -24.0099
-203.319 -10.7154 50.676
137.105 -72.9936 10.7007
134.839 -73.0736 13.3521
-209.562 47.764 -9.26985
-84.5356 -2.54882 82.8407
-96.4269 -70.2206 40.923
-99.8898 -69.8827 40.4821
-136.979 60.6222 -42.0924
-133.418 60.2161 -44.0309
-220.642 -41.6007 7.28621
-228.712 -18.2414 -31.7332
-150.288 66.2174 -24.3714
-145.692 67.5179 -24.2201
-224.157 -22.0667 -33.2471
-226.957 -21.7459 -31.0612
-184.473 59.6579 -4.30989
-180.207 61.2341 -4.30303
57.324 74.3284 -42.6261
-195.327 -1.88721 -55.402
-173.921 58.1002 -25.7883
-170.359 59.4127 -25.7085
-222.41 28.9 29.2001
-224.003 25.4919 30.8374
-161.046 9.28179 -66.9516
-162.416 5.02764 -67.0011
-92.9344 73.6425 -35.5439
-96.1171 74.6131 -32.339
-199.925 -38.6719 -36.8092
-203.583 -36.7214 -36.3496
-57.7992 83.5228 -18.9457
-54.4667 83.2922 -21.0523
-193.873 -5.49295 -55.786
54.3503 73.5686 -44.3848
-89.0161 69.931 43.3997
-88.3859 72.1682 39.7407
-212.35 46.6826 -6.63659
51.3117 74.5235 -43.2191
-93.2657 -78.2845 -23.4644
-91.5422 -76.0367 -30.6015
-93.9546 -76.9205 -27.322
-109.635 71.0642 34.9612
-109.434 69.2203 38.5533
-216.86 1.66539 44.5368
117.843 20.2172 -75.0671
114.391 22.9527 -74.9342
77.1542 -23.3463 80.4372
76.29 -19.9951 81.4348
-219.018 -2.25042 43.1981
147.224 -11.4644 70.4193
143.194 -11.0901 71.4887
-60.0813 62.0188 58.7854
-66.2618 57.011 62.8983
-179.938 -15.4705 -59.5032
11.9243 -17.6741 -86.1058
-178.389 -18.8502 -59.0983
-46.2688 -20.4854 84.0372
-50.1904 -19.7385 83.9403
-128.642 68.8101 -31.3544
71.8 -19.0235 82.1642
-131.309 69.306 -28.8047
-62.8577 59.0639 61.4143
23.3267 23.8865 84.3019
-193.27 13.4164 -54.6885
174.869 -21.6697 -59.4188
177.618 -19.8327 -59.061
-147.52 62.6807 33.9229
40.8119 2.88208 -86.7858
-146.516 60.6804 37.864
-215.683 44.7544 -6.76033
12.3739 16.1832 86.3907
16.8101 15.6596 86.3955
-10.6171 -23.8224 -84.6327
-6.48204 -24.3509 -84.5334
-44.3404 80.8979 30.965
155.288 -68.8759 -6.9121
153.788 -68.8894 -10.1334
-41.0428 81.8759 28.8807
-36.5356 82.4953 27.8405
43.4533 -72.1035 48.1032
43.6562 -74.4203 44.4104
-205.361 23.0273 45.2818
-206.934 18.9769 46.2728
-204.641 17.3107 48.1374
-169.852 62.0075 19.1564
-235.088 -5.33607 30.8092
-173.847 60.6798 19.0197
-175.641 60.9888 15.7298
-152.777 -34.9675 -60.528
-152.648 -38.3361 -58.494
-88.8711 -36.9784 -73.5502
-151.175 -63.4709 30.2889
-154.907 -63.165 28.5716
-86.4372 -39.9822 -72.3236
-82.6141 -38.6091 -73.6053
-154.816 66.3756 20.0968
-150.574 67.4271 20.5372
-155.489 52.2345 -45.3384
-158.517 54.8873 -40.6815
-193.374 42.8781 -36.4327
-159.271 52.0353 -43.9388
-248.812 -0.234712 12.8299
-205.472 42.5465 27.6572
-189.949 -1.54341 57.6563
-185.139 -6.30806 59.226
-155.601 -40.4128 -56.0941
-189.549 -6.16345 57.5085
77.4719 62.8838 55.2704
84.5762 -76.0996 32.8191
88.629 -74.8509 34.3458
-192.719 56.5406 0.19045
-190.862 57.243 -2.70636
81.2609 61.3377 56.3315
-209.096 -9.16313 48.0338
-212.225 -5.57984 46.8901
-208.581 44.3102 21.311
210.477 -46.9199 -10.8989
-243.458 18.8556 11.48
-152.794 66.8215 -20.5091
-203.196 -50.0477 -13.5731
-245.238 12.3978 15.0708
-245.586 14.9437 11.6864
-229.019 -24.0215 -27.3047
232.945 15.7774 29.1815
235.264 12.9427 28.2856
-23.6223 0.517602 -87.6094
233.085 19.609 26.6085
-6.04009 78.3248 40.0594
-3.24138 77.1585 42.2999
113.942 -33.4874 70.9444
116.857 -35.222 69.5094
0.841293 78.2494 40.261
-203.058 -46.0482 -23.9882
-206.278 -43.7207 -24.9604
-107.451 -21.1013 -76.7151
-217.127 28.6062 33.9678
-104.825 -24.7909 -76.0533
-101.015 -22.9451 -77.2543
66.4705 -76.979 -35.7392
74.7034 -76.1668 -35.4878
70.7586 -75.7086 -37.4062
28.3503 -0.0910137 87.4391
-235.393 7.84112 29.9778
-223.444 -22.4483 33.5777
-232.363 10.7253 31.9161
-150.14 68.4776 -17.1752
99.4058 -80.6631 -5.26001
101.818 -80.446 -1.79361
-127.551 -27.0028 -70.8731
-127.12 -30.5669 -69.5073
-192.54 -9.47302 55.8172
-188.127 -16.5213 56.0179
-155.606 -16.2751 67.1914
47.4351 -7.77094 86.0705
[...]
POINT_DATA 9548
VECTORS F double
1.35378e-07 7.60971e-08 6.18598e-09
8.1777e-09 1.18428e-07 -1.62631e-09
1.30747e-07 7.93176e-08 7.48372e-09
-9.92165e-08 7.1195e-08 -3.12328e-08
-9.92106e-08 7.41321e-08 -3.1724e-08
-6.76767e-08 8.93493e-08 -2.01234e-08
-7.00169e-08 8.48065e-08 -2.16336e-08
-2.56906e-08 1.13614e-07 -4.34936e-10
-1.85867e-08 1.13618e-07 6.30001e-11
7.08219e-09 1.19198e-07 -2.63639e-09
-8.3738e-08 7.65774e-08 -2.42478e-08
7.59468e-08 9.19e-08 4.54888e-09
7.53934e-08 -2.65565e-08 -1.23945e-08
7.59769e-08 -2.63711e-08 -1.09576e-08
-8.25096e-08 7.99273e-08 -2.20785e-08
1.61612e-07 4.81376e-08 -1.4902e-08
-1.37549e-07 -5.38067e-09 -6.1218e-09
-1.4071e-07 -4.01219e-09 -7.83869e-09
1.70095e-07 4.25014e-08 -8.31276e-09
-1.33319e-07 4.4305e-08 -2.68859e-08
-1.3428e-07 4.31968e-08 -2.73202e-08
-6.59183e-08 -1.17937e-08 -1.90886e-09
9.25319e-08 9.6813e-08 5.57916e-09
-9.77199e-08 6.68457e-08 6.46248e-09
-1.40678e-07 -7.70032e-09 -6.62642e-09
-5.48731e-08 -1.43713e-08 3.96657e-11
-1.39825e-07 -8.70326e-09 -6.02383e-09
-2.41284e-09 9.63378e-08 -1.25092e-08
3.24194e-09 9.97548e-08 -9.5538e-09
-8.88845e-08 6.55189e-08 2.22014e-08
-8.87876e-08 6.8512e-08 2.19809e-08
-6.72593e-08 7.19062e-08 2.14269e-08
1.90027e-07 8.65242e-09 4.37254e-08
-3.25803e-08 2.13728e-08 7.22508e-10
-3.48206e-08 1.64242e-08 -1.81082e-10
2.23472e-07 6.80303e-09 4.796e-08
-6.62715e-08 7.43281e-08 2.11955e-08
-9.79342e-08 6.61156e-08 4.39539e-09
7.08752e-08 9.26331e-08 -2.29197e-09
1.67797e-07 5.37743e-08 7.5266e-09
1.65738e-07 5.57469e-08 6.52488e-09
7.23997e-08 9.18282e-08 -2.34896e-09
9.16571e-08 8.691e-08 -3.80411e-09
2.30573e-07 3.72481e-08 3.75102e-08
2.26911e-07 3.83293e-08 3.59996e-08
-3.34251e-08 3.34494e-08 1.67834e-09
1.32386e-07 6.33186e-08 -5.06046e-09
3.40423e-08 9.79848e-08 2.64273e-09
-1.61992e-07 -2.55853e-09 -6.93347e-09
-1.62345e-07 -2.64153e-09 -7.81768e-09
4.76846e-08 9.60126e-08 3.40858e-09
-9.71708e-08 6.90338e-08 -2.9163e-08
-1.3814e-07 4.20724e-08 -2.82625e-08
-1.43416e-07 3.83938e-08 -2.63518e-08
-1.40772e-07 4.20825e-08 -2.90122e-08
-1.38808e-07 4.33211e-08 -2.83491e-08
-9.75657e-08 6.84834e-08 -2.69004e-08
1.66014e-07 5.77633e-08 8.16533e-09
1.68126e-07 5.5854e-08 9.41827e-09
2.25657e-07 3.10907e-08 1.25214e-08
2.23738e-07 3.24362e-08 1.17077e-08
-1.21411e-07 5.34292e-08 -2.75927e-08
-1.22379e-07 5.00004e-08 -2.59183e-08
-1.01309e-07 -1.85871e-08 -5.77965e-10
-1.00403e-07 -1.81144e-08 -1.62221e-09
1.45545e-08 8.46302e-08 3.57519e-09
1.89857e-09 8.70597e-08 4.50596e-09
-2.68997e-08 9.99672e-08 -1.54178e-08
-6.25569e-09 1.17041e-07 -8.12121e-09
6.96075e-08 -3.9208e-08 4.88322e-09
7.03238e-08 -3.97386e-08 6.18004e-09
1.85099e-07 6.42656e-08 5.96366e-08
1.97422e-07 5.71959e-08 5.59343e-08
7.0385e-08 -3.81492e-08 6.94827e-09
1.48752e-07 6.69575e-08 1.10681e-08
-1.43779e-08 6.25003e-09 5.20548e-10
6.08223e-08 -3.74798e-08 -9.71025e-09
6.4579e-08 -3.54198e-08 -7.49898e-09
6.10574e-08 -3.85845e-08 -8.56817e-09
-1.62764e-07 -1.70272e-09 -6.68153e-09
-1.61185e-07 -1.78519e-09 -5.79971e-09
-1.64073e-07 -5.89779e-10 -6.43449e-09
-7.36301e-09 1.04353e-07 -1.1463e-08
-2.0632e-08 -9.27374e-09 -1.95496e-09
-1.33382e-08 1.04771e-07 -1.35043e-08
-6.65438e-08 8.54865e-08 -2.50638e-08
-6.76598e-08 8.18051e-08 -2.6794e-08
1.78194e-07 6.22263e-08 5.0428e-08
1.72012e-07 6.66306e-08 5.14805e-08
-2.67815e-08 1.03694e-07 -1.4276e-08
1.09334e-07 9.11339e-08 1.19917e-09
1.22988e-07 8.57407e-08 3.52025e-08
1.23481e-07 8.71044e-08 3.92017e-08
-1.4422e-07 3.54422e-08 -2.70112e-09
1.11801e-07 8.55111e-08 3.23932e-08
-1.47249e-07 3.58938e-08 8.83054e-10
1.1457e-07 8.7387e-08 -9.09842e-10
1.20884e-07 8.43976e-08 2.02875e-09
-7.02121e-08 -5.68665e-08 -4.48315e-09
-6.59023e-08 -5.83951e-08 -5.48998e-09
6.05919e-08 7.69613e-08 -4.54358e-09
5.52736e-08 8.02908e-08 -3.42583e-09
9.17261e-08 7.18299e-08 -2.18387e-08
9.06814e-08 7.07152e-08 -1.91003e-08
-1.5309e-07 2.39083e-08 -2.04147e-08
5.52587e-08 8.71078e-08 -3.44765e-09
-4.76263e-08 -6.55986e-08 -1.49367e-09
-5.23e-08 -6.59752e-08 -1.16623e-09
-9.04647e-08 7.50608e-08 -2.72949e-08
-9.42713e-08 7.42027e-08 -2.9843e-08
1.273e-07 7.06186e-08 -2.25528e-09
-1.52294e-07 2.31033e-08 -2.04889e-08
-1.053e-07 6.78822e-08 -2.97137e-08
-1.04422e-07 6.81004e-08 -3.07071e-08
-1.50092e-07 2.35307e-08 -1.98712e-08
-4.5281e-08 9.64096e-08 -1.89386e-08
1.08571e-07 8.18464e-08 1.49127e-08
1.24516e-07 7.66136e-08 1.9671e-08
-1.50447e-07 3.38301e-08 1.16907e-08
-1.51491e-07 3.13627e-08 8.36843e-09
-1.23962e-07 4.79499e-08 2.16877e-08
-1.19385e-07 5.24185e-08 2.49585e-08
1.1961e-07 7.63945e-08 1.60946e-08
1.10717e-07 8.08277e-08 1.75291e-08
-6.36373e-08 7.03947e-08 -1.12992e-08
-6.4471e-08 6.91335e-08 -1.21329e-08
1.17411e-07 7.54021e-08 -3.30736e-09
6.45472e-08 9.68063e-08 4.53005e-09
6.99816e-08 9.27478e-08 5.97323e-09
-1.56063e-07 3.31408e-08 -2.35716e-08
-1.57163e-07 3.45917e-08 -2.57259e-08
1.14896e-07 7.39179e-08 -1.34097e-09
-8.34982e-08 6.93711e-08 1.15322e-08
-9.75125e-08 6.02638e-08 9.31054e-09
-9.36803e-08 6.49583e-08 1.20138e-08
-1.7003e-07 1.56381e-08 6.8521e-10
-1.69577e-07 1.59009e-08 -1.0593e-09
-1.70345e-07 1.73223e-08 -2.53163e-10
1.46514e-07 6.89119e-08 8.57487e-09
2.53236e-08 1.01759e-07 -7.15575e-09
1.18498e-08 9.97596e-08 -8.73206e-09
1.41374e-07 7.17017e-08 1.03645e-08
-2.46914e-08 1.06127e-07 -1.43389e-08
-9.49665e-08 6.73049e-08 -2.80497e-08
-9.483e-08 6.89786e-08 -3.05632e-08
-5.47446e-08 8.1278e-08 1.62513e-08
-5.97675e-08 7.62056e-08 1.73147e-08
-1.09591e-07 5.92675e-08 -2.58696e-08
-1.09464e-07 5.58287e-08 -2.5092e-08
1.21111e-07 8.30295e-08 3.65479e-08
1.32314e-07 7.80543e-08 3.50714e-08
-1.37384e-08 1.12717e-07 -1.15408e-08
-5.07021e-08 -5.0351e-08 -4.70122e-09
-4.35269e-08 -5.10705e-08 -4.51217e-09
-4.11718e-08 -5.33448e-08 -3.99682e-09
-1.09505e-07 6.42479e-08 -3.3007e-08
-1.03359e-07 6.85559e-08 -3.46654e-08
-1.17249e-07 5.09463e-08 1.72124e-08
-1.16577e-07 4.92803e-08 1.28201e-08
-5.6234e-08 9.07291e-08 -2.12486e-08
-4.44669e-08 9.16147e-08 -2.07805e-08
-9.86498e-08 6.56001e-08 -3.22543e-08
-9.94529e-08 6.96421e-08 -3.42533e-08
-6.59419e-09 9.77189e-08 -1.35095e-08
-1.08593e-08 9.39699e-08 -1.62236e-08
-1.0705e-07 5.6683e-08 2.3357e-08
-1.06713e-07 5.45096e-08 2.0537e-08
2.46982e-07 2.91729e-08 3.61842e-08
2.53607e-07 2.54191e-08 3.04567e-08
1.16943e-07 7.12679e-08 -2.50892e-09
1.19339e-07 6.92314e-08 -4.56823e-09
2.54976e-07 2.50207e-08 3.60761e-08
2.80822e-07 1.23135e-08 3.03071e-08
1.27244e-07 8.07026e-08 5.50755e-09
-1.53306e-08 1.16994e-07 -9.16933e-09
2.69049e-07 1.73621e-08 3.6151e-08
2.7732e-07 1.45201e-08 3.20415e-08
6.96979e-09 1.15025e-07 -7.53815e-09
6.97421e-08 8.19541e-08 -4.73248e-09
4.62438e-08 9.89688e-08 9.23474e-10
5.38937e-08 9.49485e-08 2.57679e-09
3.01706e-08 8.48324e-08 -2.47816e-10
4.21447e-08 8.43756e-08 -2.33395e-10
-5.89089e-09 1.16837e-07 -9.4869e-09
9.69981e-08 7.4861e-08 -6.46433e-09
-4.68609e-08 1.05246e-07 2.33216e-09
-5.99722e-08 9.88229e-08 -7.48267e-10
-1.08626e-08 8.76307e-08 7.89947e-09
-1.0752e-08 1.19126e-07 -5.80837e-09
1.69656e-07 6.61058e-08 4.64801e-08
1.70732e-07 6.73623e-08 4.63834e-08
-2.63456e-08 1.1555e-07 -5.81002e-09
2.23092e-07 3.71327e-08 3.06833e-08
-1.33382e-07 4.30802e-08 1.96963e-08
-1.33568e-07 4.48869e-08 2.26082e-08
2.25976e-07 3.82971e-08 3.22919e-08
-4.62625e-10 8.51968e-08 6.77728e-09
-1.34788e-08 -2.20381e-08 -3.09375e-09
-8.85595e-08 6.7662e-08 -2.0963e-08
-7.45631e-08 7.35866e-08 -1.78857e-08
-8.54419e-08 6.75984e-08 -1.87348e-08
-2.63936e-08 9.76156e-08 -1.58879e-08
1.81438e-07 5.17063e-08 1.10877e-08
8.31322e-08 -2.75374e-08 7.86013e-09
8.32724e-08 -2.8133e-08 8.60111e-09
1.83271e-07 5.03117e-08 1.25918e-08
-1.09284e-08 9.74584e-08 -1.48781e-08
-9.8148e-09 9.96527e-08 -1.15253e-08
-1.42288e-07 3.84308e-08 6.46701e-09
-1.43226e-07 3.62475e-08 3.32913e-09
-8.05569e-08 8.48016e-08 -1.15797e-08
-7.40155e-08 9.28185e-08 -1.27301e-08
2.57958e-08 1.11199e-07 -3.53219e-09
2.10442e-08 1.08067e-07 -6.72437e-09
2.94434e-07 4.27246e-09 1.01977e-08
2.92846e-07 5.97073e-09 9.2303e-09
2.72056e-08 1.06858e-07 -3.18065e-09
9.82525e-08 7.72197e-08 -5.65823e-09
1.41807e-07 7.12227e-08 1.11596e-08
1.44511e-07 6.87361e-08 1.16975e-08
9.48231e-08 7.5161e-08 -3.16264e-09
8.08057e-08 8.09053e-08 -4.42463e-09
8.48001e-08 7.84875e-08 -5.29452e-09
-1.33242e-08 3.12843e-09 -8.79144e-12
1.92554e-07 4.7598e-08 2.00823e-08
2.6698e-07 1.11065e-08 2.90458e-09
2.69179e-07 9.94992e-09 1.4241e-09
-1.02677e-07 6.56508e-08 1.99711e-09
-1.03997e-07 6.18285e-08 1.27484e-10
1.69691e-07 6.85872e-08 5.28843e-08
-5.62188e-08 9.82299e-09 7.67736e-10
1.69909e-07 6.77735e-08 4.84512e-08
1.95107e-07 4.82092e-08 2.44844e-08
-1.64618e-08 8.23242e-08 9.32127e-09
-1.1641e-07 -2.76447e-08 -5.96692e-09
-1.17203e-07 -2.75608e-08 -5.92679e-09
1.38397e-07 7.57111e-08 7.06018e-09
-1.56164e-08 8.91038e-08 7.9054e-10
-1.46286e-07 3.52479e-08 1.82816e-08
-1.46951e-07 3.55418e-08 1.69609e-08
1.61324e-07 6.1481e-08 2.42716e-08
1.63482e-07 6.27596e-08 2.51815e-08
-1.01474e-07 6.57619e-08 -7.42297e-10
-4.32794e-08 9.83434e-08 -1.8342e-08
1.77311e-07 5.50207e-08 1.56257e-08
1.78918e-07 5.37281e-08 1.80112e-08
-5.01841e-08 9.4409e-08 -2.12369e-08
-5.12399e-08 9.26502e-08 -1.90268e-08
1.60247e-07 6.1266e-08 8.30701e-09
1.62416e-07 5.91787e-08 9.38831e-09
1.40201e-07 -1.60947e-08 -4.98146e-09
1.16489e-08 1.00469e-07 -8.45068e-09
1.57452e-07 6.34492e-08 1.29417e-08
1.59011e-07 6.22408e-08 1.4835e-08
8.8962e-08 8.54518e-08 -1.6142e-09
7.81246e-08 8.82194e-08 -3.44785e-09
3.7955e-08 1.01384e-07 2.87764e-09
2.35489e-08 1.0445e-07 8.48841e-10
2.04017e-07 4.81063e-08 3.43619e-08
2.02682e-07 4.71819e-08 3.51058e-08
-7.9507e-08 7.64806e-08 -2.74814e-08
-7.8907e-08 8.00212e-08 -2.67337e-08
2.47789e-07 2.77054e-08 2.95891e-08
2.50496e-07 2.79342e-08 3.11748e-08
2.32355e-09 9.5715e-08 -1.04132e-08
1.42152e-07 -1.78259e-08 -8.23544e-09
1.89601e-07 3.65459e-08 -1.12758e-08
1.98895e-07 3.58545e-08 -1.09531e-08
1.35082e-07 7.59667e-08 5.18748e-09
1.43928e-07 -1.50634e-08 -5.0536e-09
-1.61019e-07 3.02461e-08 -2.25533e-08
-1.57306e-07 3.34249e-08 -2.54401e-08
-1.57104e-07 3.20367e-08 -2.40513e-08
1.90809e-07 3.9216e-08 -6.45569e-09
1.85532e-07 3.878e-08 -5.15107e-09
1.19785e-08 9.02458e-08 3.7665e-09
1.31507e-08 -3.2821e-08 -6.31191e-09
1.41982e-08 -3.06336e-08 -6.72967e-09
-5.91632e-08 -4.23143e-08 -5.33367e-09
-5.288e-08 -4.05468e-08 -3.89048e-09
-5.54972e-11 9.41916e-08 4.87274e-09
-2.33796e-08 -4.96865e-08 -2.10466e-09
-2.4157e-08 -5.14298e-08 -2.05428e-09
1.72195e-07 4.65631e-08 -2.75775e-08
1.52908e-07 5.6077e-08 -3.11064e-08
-2.0127e-08 9.84197e-08 -1.8137e-08
-6.67181e-08 1.38915e-08 -3.98259e-09
-2.63067e-08 9.43354e-08 -2.03678e-08
-7.08512e-08 5.2237e-08 7.95777e-09
-7.0871e-08 5.63475e-08 8.06201e-09
1.85045e-07 5.22394e-08 2.16933e-08
-5.38906e-08 -4.20673e-08 -3.97424e-09
1.83027e-07 5.12505e-08 2.11623e-08
1.58276e-07 5.26702e-08 -3.08212e-08
1.60617e-09 -1.50993e-08 4.22391e-09
4.75381e-08 9.91923e-08 3.76587e-09
-4.35408e-08 -3.91146e-08 -1.42344e-09
-4.20393e-08 -4.00206e-08 -2.03979e-09
1.60986e-07 4.93843e-08 -5.53854e-09
-2.91539e-08 -7.18875e-09 -1.91727e-09
1.55385e-07 4.83371e-08 -3.85119e-09
1.32251e-07 7.87055e-08 4.46155e-09
-1.45137e-08 -3.28429e-10 3.1604e-10
-1.46414e-08 -6.51087e-09 1.52891e-09
-7.84565e-08 3.14261e-08 -7.64083e-09
-7.80955e-08 2.81031e-08 -7.36228e-09
2.38224e-07 2.06942e-08 -1.23005e-08
-1.11528e-07 -3.03892e-08 -3.94719e-09
-1.11981e-07 -2.99835e-08 -4.22999e-09
2.45903e-07 1.74771e-08 -6.76289e-09
2.4837e-07 1.6053e-08 -7.66217e-09
-1.3354e-07 -1.5467e-08 -8.41498e-09
-1.37656e-07 -1.55066e-08 -9.41782e-09
6.87552e-08 8.03019e-08 -2.6601e-09
5.61276e-08 8.33457e-08 -3.44998e-09
5.4772e-08 8.19859e-08 -9.75376e-10
1.60474e-07 5.33021e-08 1.6675e-09
-1.38797e-08 9.94866e-08 4.26498e-09
1.58789e-07 5.45829e-08 3.55591e-09
1.58588e-07 5.51897e-08 2.81619e-09
-6.45657e-08 8.57602e-08 -2.95921e-08
-7.48594e-08 8.33728e-08 -3.07238e-08
-8.55197e-08 7.92303e-08 -2.7183e-08
-1.27662e-07 4.61854e-08 1.87723e-08
-1.27431e-07 4.5258e-08 1.54685e-08
-9.24784e-08 7.26739e-08 -2.66442e-08
-9.20376e-08 7.44819e-08 -2.64216e-08
1.73254e-07 4.81582e-08 4.34665e-09
1.75462e-07 4.72147e-08 2.48663e-09
1.41556e-07 7.06057e-08 2.19084e-08
1.49596e-07 6.75511e-08 1.97742e-08
1.22067e-07 7.91945e-08 1.38828e-08
1.39573e-07 6.87276e-08 1.94509e-08
-7.818e-10 1.15216e-07 2.53893e-10
1.17519e-07 7.19002e-08 -3.71653e-09
7.84561e-09 8.59559e-08 5.46559e-09
-3.54045e-09 8.75073e-08 7.96532e-09
-7.59384e-08 8.04229e-08 -3.21508e-08
-4.64731e-09 8.36484e-08 7.08975e-09
9.1057e-08 -5.05673e-08 4.19066e-08
-1.28854e-07 -2.15345e-08 -9.27889e-09
-1.27303e-07 -2.3111e-08 -1.01475e-08
1.52449e-07 6.35944e-08 6.85041e-09
1.55008e-07 6.36297e-08 7.48094e-09
9.03099e-08 -5.34426e-08 4.22423e-08
-1.25547e-08 8.44251e-08 9.41435e-09
-6.90712e-09 9.01599e-08 6.90167e-09
1.24899e-07 7.20423e-08 -1.26303e-10
-8.42805e-08 -4.57795e-08 -2.18756e-09
6.64902e-08 1.06514e-07 -2.30761e-09
1.76969e-07 5.45985e-08 1.64736e-08
-1.11285e-07 6.03218e-08 -1.84548e-08
4.37806e-08 1.09286e-07 -2.67923e-09
5.41694e-08 1.11677e-07 -3.43113e-09
-5.84573e-08 9.18752e-08 -2.07989e-08
2.71125e-08 -6.15297e-08 6.76962e-09
2.35e-08 -6.49793e-08 5.8027e-09
-3.76147e-08 5.80784e-08 1.58482e-09
3.57947e-08 -6.10525e-08 6.60415e-09
2.43172e-07 2.11554e-08 -3.68743e-08
2.49094e-07 2.39533e-08 -4.13559e-08
-6.26447e-08 -4.07149e-08 -6.90035e-09
-6.2318e-08 -4.05602e-08 -7.72611e-09
2.47402e-07 2.48651e-08 -4.89597e-08
-9.98535e-08 6.67196e-08 -2.45919e-08
-9.76808e-08 7.11258e-08 -2.5752e-08
-4.80547e-08 9.80232e-08 -1.87219e-08
8.59719e-08 8.2094e-08 -1.85474e-09
-5.65581e-08 9.03952e-08 -1.99219e-08
-5.64343e-08 9.3781e-08 -1.88192e-08
-1.33493e-07 -1.15215e-08 -5.58086e-09
-1.30569e-07 -1.32321e-08 -5.25063e-09
-1.3182e-07 -1.28694e-08 -4.48143e-09
-3.81882e-08 -2.31852e-08 1.49181e-09
2.84296e-08 1.00277e-07 1.10315e-09
-5.29695e-08 8.30508e-08 1.23685e-08
3.541e-08 9.83328e-08 -1.48088e-09
1.82398e-07 5.26136e-08 1.45592e-08
-1.33001e-07 -1.96666e-08 -6.14015e-09
-1.31389e-07 -2.02146e-08 -6.50339e-09
-5.47054e-08 9.39513e-08 -2.3742e-08
-6.54345e-08 9.06868e-08 -2.52296e-08
-1.06331e-08 8.52527e-08 9.97818e-09
-2.46764e-08 8.26331e-08 1.42249e-08
-2.66049e-08 8.47426e-08 1.2983e-08
-4.35117e-08 -3.76627e-08 -4.64474e-10
-4.14877e-08 -4.05501e-08 1.34683e-10
2.00401e-07 3.33065e-08 -5.26315e-08
2.00798e-07 3.36463e-08 -4.90686e-08
-2.8212e-08 8.14893e-08 1.47273e-08
-2.49941e-08 8.31939e-08 1.07751e-08
-1.67236e-07 1.84504e-08 -1.69502e-08
1.26743e-07 7.64638e-08 2.61929e-08
-1.69398e-07 1.70332e-08 -1.5234e-08
4.02375e-08 1.01023e-07 1.37184e-08
4.48715e-08 1.04392e-07 1.8257e-08
-1.69175e-07 1.67628e-08 -1.39037e-08
6.76944e-09 8.39016e-08 4.29478e-09
1.93602e-09 8.60304e-08 6.69993e-09
1.2577e-07 7.99432e-08 6.66604e-09
2.35751e-07 3.23622e-08 2.99238e-08
1.51773e-07 6.54592e-08 8.68422e-09
1.19036e-07 8.22737e-08 8.5042e-09
-1.03754e-08 8.2699e-08 1.06106e-08
1.62413e-07 -1.79024e-08 1.46013e-08
1.64304e-07 -1.74257e-08 1.79805e-08
1.60986e-08 -4.59384e-08 -7.84906e-09
1.89605e-08 -4.24329e-08 -7.98066e-09
1.28045e-07 8.02563e-08 7.57091e-09
1.14585e-07 6.52176e-08 -4.40847e-09
-1.59101e-08 9.43637e-08 7.49502e-09
1.07778e-07 6.95932e-08 -6.24901e-09
2.23139e-07 -4.16939e-09 4.03768e-08
2.02514e-07 -1.18068e-08 1.15508e-08
1.30783e-07 7.4959e-08 1.75851e-08
-5.7175e-08 -2.82232e-09 -2.33188e-09
1.22692e-07 7.47109e-08 1.47984e-08
1.20214e-07 7.90751e-08 1.11976e-08
-1.67388e-07 1.41109e-08 -1.53048e-08
-1.66265e-07 1.6065e-08 -1.70459e-08
-1.45919e-07 3.57315e-08 1.83444e-08
-1.47998e-07 3.20769e-08 1.53415e-08
-1.64546e-07 1.69142e-08 -1.73654e-08
-1.65239e-07 2.50855e-08 -1.37981e-08
-1.65726e-07 2.44161e-08 -1.27163e-08
-8.75044e-08 6.65716e-08 1.54752e-08
-8.76864e-08 6.53881e-08 1.21583e-08
1.84062e-07 5.10385e-08 1.63941e-08
8.34311e-08 8.75841e-08 4.29381e-08
6.30835e-08 8.92229e-08 3.95525e-08
7.89969e-08 -3.27476e-08 1.14643e-08
7.92126e-08 -3.11896e-08 1.1325e-08
-5.96643e-08 -6.09599e-08 -5.24228e-10
-6.36674e-08 -5.76285e-08 -9.79571e-10
2.60041e-08 1.1535e-07 -2.04016e-09
-8.90113e-08 7.57242e-08 6.08215e-09
8.21533e-08 9.83607e-08 4.74497e-09
-1.00053e-07 6.71342e-08 -2.20015e-08
-8.75548e-08 -2.70439e-08 -6.96284e-10
-8.67031e-08 -2.68239e-08 -1.3449e-09
-1.0592e-07 6.25566e-08 -2.13468e-08
2.2787e-07 3.72754e-08 4.04728e-08
-9.04242e-08 7.17561e-08 7.09302e-09
9.27846e-08 9.66008e-08 4.76954e-09
1.63134e-07 6.1019e-08 1.17068e-08
1.64812e-07 6.01632e-08 1.41806e-08
-1.10504e-07 4.50311e-09 -6.99299e-09
-1.09167e-07 6.74915e-09 -7.59031e-09
-1.57003e-07 2.8866e-08 -1.70644e-09
-1.59542e-07 2.91506e-08 1.66101e-09
1.69348e-07 5.74108e-08 1.18694e-08
4.10284e-08 -6.43342e-08 2.76255e-09
1.75763e-07 4.10251e-08 -9.94218e-09
1.88304e-07 3.95665e-08 -7.72566e-09
2.54176e-07 1.72084e-08 5.78318e-09
1.41708e-07 6.99525e-08 4.56498e-09
-2.96693e-08 8.22708e-08 1.27734e-08
-1.09867e-07 1.30576e-08 -9.67025e-09
-1.08801e-07 1.12541e-08 -8.96245e-09
2.47249e-07 1.97868e-08 6.1928e-09
1.41337e-07 6.69619e-08 2.81422e-09
1.43671e-07 6.41883e-08 2.69515e-09
2.49887e-07 1.92785e-08 1.66046e-09
4.19486e-08 1.8236e-10 -1.30271e-09
-7.91296e-08 -3.89752e-08 -7.11503e-10
-7.34677e-08 -3.83021e-08 -9.02193e-10
1.12058e-07 8.00495e-08 1.32739e-08
1.12339e-07 8.00841e-08 1.53289e-08
1.09207e-07 8.21025e-08 1.27133e-08
9.7941e-08 8.67677e-08 1.10912e-08
9.16943e-08 9.11219e-08 1.10639e-08
-8.26362e-08 7.62712e-08 -3.14753e-08
-9.10151e-08 7.06566e-08 -2.89646e-08
-8.84629e-08 -4.53997e-08 -4.18844e-09
-8.65023e-08 -4.65414e-08 -3.02862e-09
1.23634e-07 7.6483e-08 1.3239e-08
-1.05686e-07 6.41237e-08 -1.87228e-08
2.40657e-07 1.99111e-08 -1.75675e-08
2.38881e-07 1.9797e-08 -1.36178e-08
6.22486e-09 2.40749e-08 7.33598e-09
-7.56991e-09 1.02882e-07 -1.23767e-08
-3.83009e-08 8.18799e-08 1.45291e-08
-5.23811e-08 8.2621e-08 1.29439e-08
-5.02016e-08 -1.72008e-08 -1.50971e-09
-1.08933e-08 1.02265e-07 -1.53975e-08
-4.09025e-08 -4.68884e-08 -6.16877e-09
-4.01354e-08 -4.62658e-08 -4.68759e-09
7.5736e-09 1.01123e-07 -1.02179e-08
1.48864e-07 6.84757e-08 9.68786e-09
-2.59571e-08 -4.74783e-08 -1.24925e-09
-2.63524e-08 -4.96619e-08 -2.14076e-09
1.4628e-07 6.8777e-08 7.87415e-09
6.26814e-09 1.10683e-07 -7.6119e-09
1.61249e-07 6.12852e-08 1.04871e-08
2.40462e-07 1.97546e-08 -1.67793e-08
-1.57858e-07 4.60917e-10 -1.00953e-08
-1.55782e-07 7.75751e-10 -1.01326e-08
-7.57113e-08 -1.67712e-08 -7.81994e-10
-6.85105e-08 -1.64421e-08 -9.65884e-10
2.28041e-07 2.44914e-08 -2.21843e-08
3.13236e-08 1.14924e-07 -3.48019e-09
4.27793e-08 8.3014e-08 -3.46152e-09
3.99555e-08 1.11296e-07 -1.5662e-09
9.87395e-08 9.32519e-08 2.93122e-08
9.49833e-08 9.64423e-08 2.75186e-08
8.28322e-08 -3.32034e-08 2.05123e-08
8.71123e-08 -3.20829e-08 2.00412e-08
9.27822e-08 9.07811e-08 2.53727e-08
1.18249e-07 8.20338e-08 -2.05939e-09
3.0311e-08 8.15385e-08 -2.06027e-09
1.13582e-07 8.61435e-08 2.79784e-10
8.20845e-08 -4.95618e-08 3.65978e-08
9.14833e-08 -5.04545e-08 3.99199e-08
8.88008e-08 8.21414e-08 -4.09406e-09
7.86255e-08 7.98675e-08 -2.61921e-09
6.99699e-08 8.53172e-08 -4.67099e-09
-1.43394e-07 -1.28917e-08 -7.18654e-09
-1.4427e-07 -1.31817e-08 -6.70816e-09
1.22906e-07 -3.48348e-08 4.31486e-08
1.18283e-07 -3.65794e-08 4.20614e-08
4.52798e-08 1.02968e-07 1.60275e-08
5.99251e-08 1.03271e-07 1.90389e-08
6.64587e-08 8.67546e-08 -2.56278e-09
-1.18016e-07 -2.66292e-08 -4.73854e-09
-4.29454e-08 8.01291e-08 1.52677e-08
-5.39188e-08 7.76273e-08 1.49151e-08
-5.3943e-08 7.62217e-08 1.71508e-08
3.1862e-07 -9.95863e-09 4.91627e-08
3.05977e-07 -9.19145e-09 4.344e-08
-1.04857e-07 6.29111e-08 -3.02859e-08
-1.04921e-07 6.1408e-08 -2.7361e-08
-1.30672e-07 2.57463e-08 1.12356e-08
-1.28468e-07 2.54049e-08 1.04791e-08
1.17517e-07 8.70468e-08 4.25602e-09
1.21035e-07 8.45411e-08 6.62673e-09
-1.62957e-07 2.68818e-08 -1.73264e-08
1.27606e-07 8.09489e-08 4.6883e-09
1.22891e-08 8.39745e-08 -1.50641e-08
1.98305e-08 -5.15452e-08 8.81297e-09
1.19597e-08 -5.28322e-08 8.0927e-09