# vtk DataFile Version 2.0
S, Created by Mohamad Ibrahim Cheikh
ASCII
DATASET UNSTRUCTURED_GRID
POINTS 9548 double
-209.357 46.8943 -13.3701
-249.727 2.48285 10.1318
-212.646 44.5371 -14.9779
-106.492 -46.4059 -64.8233
-110.333 -45.5392 -64.6513
-229.048 -26.6178 -24.7473
-225.856 -29.14 -25.4862
-249.568 -6.6518 8.61724
-248.809 -4.76615 11.9204
-250.713 2.20381 6.59949
-217.073 -36.7752 -24.951
-204.422 23.143 -45.7409
97.1772 59.4425 -55.2669
101.14 58.5483 -55.3508
-220.633 -34.4484 -24.4448
-116.474 62.5377 46.6058
39.604 -75.1207 -43.6904
36.2756 -76.7986 -41.0471
-113.22 64.5039 44.8759
-66.8276 -60.4951 -59.4775
-69.5168 -62.3639 -57.1234
54.3746 -23.9717 -82.5069
-229.351 28.3394 -22.379
-217.568 -40.4766 17.6148
48.272 -79.4176 -33.9347
20.0873 -9.22175 87.2328
52.0042 -78.7136 -34.8864
-188.91 -7.86069 -57.559
-190.548 -4.52767 -57.256
-99.4724 -40.1224 70.1625
-103.447 -38.7651 70.2218
-181.499 -35.391 49.5819
36.8349 79.6752 -35.0678
9.02829 4.71183 -87.817
12.7924 2.40597 -87.8532
36.6205 80.961 -32.0177
-178.356 -34.0816 51.8444
-219.32 -40.5703 14.4568
-229.815 22.4114 27.8488
-170.325 64.4787 5.89112
-174.567 63.0439 6.20852
-226.735 22.8589 30.4545
-223.826 30.2481 26.3726
-69.2391 80.1704 -27.0143
-68.8586 78.9711 -30.4477
-2.55291 4.1763 -87.8963
-186.006 50.3037 31.2673
-171.693 9.21518 -63.6398
4.07755 -85.89 19.1014
5.2011 -86.6539 15.2247
-170.731 12.8244 -63.331
-191.858 -46.639 -32.5916
-70.4176 -64.626 -54.4094
-68.6888 -66.8334 -51.9582
-77.1054 -66.4754 -50.9622
-75.3189 -64.4949 -53.7574
-195.202 -46.0306 -30.9857
-176.784 62.583 -1.04181
-172.473 64.0321 -1.40288
-92.9934 81.6882 3.50531
-97.085 81.0944 3.7059
-162.886 -60.28 -29.3605
-158.961 -62.0737 -28.235
85.2973 -55.1723 -61.7192
89.4428 -55.4267 -60.7654
-199.216 2.09381 53.6723
-200.567 -2.03953 53.055
-224.854 -12.9476 -37.2339
-248.369 -2.34103 -13.6436
209.481 47.0067 12.7221
207.057 47.2628 16.1647
-35.9749 65.8972 -56.9483
-33.3906 67.9606 -54.6704
203.851 48.9009 16.2814
-190.266 54.8462 -17.4295
23.1636 13.7558 -86.5395
196.172 46.5108 -29.482
194.154 48.9635 -27.0456
199.895 45.0071 -28.7453
-0.0463928 -85.4703 20.9483
-0.100301 -84.3146 25.2002
-3.85532 -85.938 18.8901
-228.664 -5.74295 -36.1865
42.0429 6.75111 -86.4986
-230.532 -7.80485 -34.3003
-207.64 -30.9725 -38.8095
-203.668 -33.3431 -39.4176
-57.6589 65.3842 -55.3342
-60.467 63.5379 -57.0902
-230.801 -11.6282 -32.9702
-231.582 34.1849 3.07139
-102.493 45.4501 -66.2735
-98.5386 47.0165 -65.9141
-145.111 -71.6833 5.24033
-118.415 43.5339 -64.2812
-143.027 -71.8387 8.86984
-227.985 36.8517 4.72976
-224.602 39.5449 2.01413
228.378 -35.4506 10.0839
230.214 -33.1246 12.5756
-185.524 21.3194 55.4575
-188.963 18.4426 55.066
-92.6793 36.8753 73.0247
-89.2495 34.3794 74.7452
-45.6559 -73.9088 -45.0143
-213.559 18.454 42.6578
240.058 -21.1204 -15.5738
240.075 -23.224 -12.1765
-98.3115 -39.9365 -70.4682
-100.49 -42.9055 -68.314
-204.705 46.0788 22.1455
-41.6888 -73.805 -45.6514
-98.4855 -47.2785 -65.7361
-93.6834 -47.3796 -66.518
-39.6694 -71.8909 -48.8163
-231.317 -18.7928 -28.9808
-174.974 37.8432 -50.6318
-170.447 45.8488 -45.6621
-120.074 -73.4703 24.1028
-116.53 -74.6715 22.4867
-136.04 -61.4964 41.1873
-138.892 -59.1807 43.3573
-168.692 42.901 -49.1884
-171.208 39.8959 -50.6322
-50.3128 -18.9116 -84.1215
-53.9101 -20.6409 -83.4394
-211.3 41.5078 23.5554
-203.297 19.0509 -48.1775
-200.383 21.8296 -48.4922
-101.323 -76.3606 -25.6152
-98.7648 -75.7831 -28.4021
-209.144 40.4851 27.3811
-215.43 -36.1509 27.4792
-205.843 -44.3664 24.2506
-208.833 -41.5309 26.074
-62.621 -83.6076 16.543
-65.3039 -83.8979 13.5285
-69.8081 -83.4081 13.801
-194.878 53.0297 -16.8009
-218.795 3.82879 -43.2257
-218.541 -0.435975 -43.549
-198.021 50.7745 -19.1091
-239.493 -9.97853 -24.9436
-184.755 -47.0491 -36.7601
-180.802 -47.381 -38.6894
-110.587 -24.0002 75.3042
-108.315 -27.1857 74.6228
-67.0742 -46.075 -71.206
-63.105 -46.9178 -71.0997
-105.642 47.3965 -64.2746
-103.846 49.9534 -62.6767
-241.735 -5.7976 -23.5803
193.275 -28.4772 48.5762
193.856 -24.7832 50.2878
197.31 -22.4846 49.7202
-147.399 -54.2968 -46.2156
-149.236 -51.7799 -48.3337
-169.99 -57.7156 29.5818
-174.112 -57.3504 27.2662
-218.52 -24.7775 -35.8316
-218.172 -21.4293 -38.1736
-159.753 -51.1965 -44.7031
-155.991 -50.3135 -47.2593
-195.966 -8.94786 -54.4269
-194.091 -11.9932 -54.6631
-161.297 -53.8821 40.6875
-164.788 -53.9559 38.835
-47.6212 82.3741 -26.0932
-44.1218 83.2713 -23.9072
-202.546 41.9672 30.985
-198.572 44.1452 31.107
-39.1301 83.6573 -23.622
-16.6628 86.4252 -15.514
-217.663 42.9136 -10.0997
-249.328 -4.59794 -10.5834
-22.9451 85.4247 -19.5492
-20.4753 86.1091 -16.6701
-245.032 0.746039 -19.8152
-208.629 24.3758 42.6718
-205.371 12.4077 -49.2574
-202.809 15.6348 -49.637
-203.555 9.18051 50.8611
-203.161 12.7332 50.2854
-246.322 -2.71519 -17.5568
-199.115 35.2679 40.5736
-246.58 -13.4714 10.8868
-244.847 -17.9203 9.11882
-205.571 -7.46667 50.144
-251.218 -2.69618 -3.17332
-73.1899 62.7574 -56.1219
-69.4094 61.6862 -57.8704
-250.669 -6.86775 -1.97396
-80.1748 79.7115 -24.5579
-121.407 -64.854 41.6339
-117.482 -64.5073 43.5088
-76.772 79.1416 -27.5501
-203.908 -4.05267 51.3527
67.1344 6.79045 -84.5346
-63.8394 -34.2019 -77.944
-63.4959 -27.3057 -80.6523
-61.7706 -31.3719 -79.3263
-217.816 -13.8104 -41.7697
-155.918 68.7091 -6.83554
170.493 64.4595 5.49464
169.886 64.2393 9.15598
-152.007 69.7723 -6.85153
-217.075 -9.41435 -43.4312
-220.6 -7.2763 -41.6302
-148.111 -69.486 15.1645
-144.254 -70.8149 13.4749
-237.514 -28.2758 -6.15114
-240.9 -24.2827 -7.02436
-238.321 6.11694 -27.4396
-235.886 3.95449 -30.2662
-10.2515 87.9144 1.48152
-14.4297 87.8423 1.49695
-232.74 6.4926 -32.7116
-205.01 34.8442 37.2055
-192.821 51.0175 -24.2745
-189.279 52.9413 -23.5575
-203.092 33.2235 39.8799
-207.904 27.8402 40.9512
-204.934 30.0644 41.2107
27.6142 14.1817 -86.3106
-126.044 72.5233 -23.2232
-30.1361 85.1496 19.5538
-26.0484 85.1631 20.2031
-218.854 -42.0596 10.5333
-215.621 -44.2602 9.64026
-55.775 62.5253 -58.7684
-1.81372 -8.01542 87.6319
-58.6801 61.1264 -59.8831
-122.284 73.0692 -23.9613
-203.349 -10.5543 50.695
136.876 -73.0481 10.6883
134.608 -73.128 13.3397
-209.29 47.9124 -9.25506
-84.5629 -2.37141 82.8426
-96.7125 -70.1506 40.9605
-100.177 -69.8122 40.5169
-136.662 60.7431 -42.044
-133.097 60.3396 -43.9808
-220.84 -41.472 7.28547
-228.797 -18.0485 -31.7687
-149.94 66.3255 -24.3401
-145.34 67.6234 -24.184
-224.255 -21.8816 -33.2884
-227.057 -21.5641 -31.0981
-184.159 59.778 -4.29274
-179.888 61.3501 -4.28375
57.6128 74.2931 -42.6399
-195.304 -1.68994 -55.4182
-173.612 58.2248 -25.7622
-170.047 59.5349 -25.6787
-222.234 29.0672 29.198
-223.848 25.6645 30.8317
-160.971 9.48128 -66.9456
-162.369 5.23318 -66.9991
-92.5331 73.7372 -35.4758
-95.7185 74.7059 -32.2695
-200.081 -38.522 -36.8628
-203.737 -36.5645 -36.4018
-57.3108 83.577 -18.8881
-53.9729 83.3469 -20.9914
-193.868 -5.30497 -55.8061
54.6419 73.5306 -44.4038
-88.6423 70.0033 43.3768
-87.9939 72.239 39.7184
-212.085 46.8315 -6.62541
51.6072 74.4914 -43.2314
-93.5818 -78.225 -23.5088
-91.8513 -75.9709 -30.6516
-94.263 -76.8574 -27.3693
-109.259 71.1415 34.9482
-109.068 69.2967 38.543
-216.835 1.84201 44.545
117.869 20.1472 -75.081
114.418 22.8867 -74.9492
77.0331 -23.4298 80.4272
76.1811 -20.0751 81.4276
-219.016 -2.06606 43.2085
147.175 -11.5661 70.4154
143.143 -11.1954 71.4849
-59.7412 62.1113 58.7302
-65.9596 57.1222 62.8363
-179.978 -15.2771 -59.5386
11.7889 -17.6446 -86.1142
-178.44 -18.6648 -59.1381
-46.4056 -20.3781 84.054
-50.3273 -19.6233 83.9573
-128.279 68.9127 -31.3111
71.6893 -19.1057 82.1569
-130.95 69.4067 -28.7626
-62.5448 59.1684 61.3528
23.3314 23.8666 84.3074
-193.176 13.6113 -54.6807
174.783 -21.7471 -59.4217
177.535 -19.9118 -59.065
-147.203 62.7775 33.9125
40.7503 2.86803 -86.7898
-146.21 60.7753 37.8569
-215.423 44.9087 -6.75059
12.3467 16.192 86.3896
16.7827 15.6564 86.3967
-10.775 -23.7575 -84.6485
-6.63928 -24.2929 -84.5485
-43.8709 80.9391 30.9391
155.069 -68.9356 -6.92038
153.567 -68.9483 -10.1423
-40.5582 81.9108 28.8657
-36.0461 82.5274 27.8236
43.1883 -72.1337 48.0871
43.3834 -74.4506 44.3924
-205.225 23.1844 45.2775
-206.822 19.1399 46.267
-204.532 17.471 48.1364
-169.537 62.112 19.1605
-235.114 -5.1412 30.8185
-173.535 60.7868 19.0275
-175.329 61.0969 15.7362
-152.904 -34.7988 -60.5861
-152.795 -38.172 -58.5544
-89.0397 -36.821 -73.6042
-151.424 -63.3802 30.3268
-155.155 -63.0762 28.6029
-86.6196 -39.8377 -72.3765
-82.7957 -38.4609 -73.6579
-154.475 66.47 20.106
-150.229 67.5197 20.5426
-155.212 52.3733 -45.2946
-158.224 55.0201 -40.642
-193.135 43.0336 -36.4048
-158.997 52.1704 -43.8999
-248.812 -0.00889899 12.8314
-205.241 42.6872 27.651
-189.931 -1.37515 57.6677
-185.144 -6.13667 59.2423
-155.75 -40.2547 -56.1572
-189.556 -5.99968 57.5232
77.6571 62.7892 55.3461
84.321 -76.1423 32.8003
88.3769 -74.8969 34.3252
-192.419 56.6653 0.204836
-190.557 57.3678 -2.69079
81.4437 61.2362 56.4095
-209.118 -8.99787 48.053
-212.236 -5.40336 46.9044
-208.335 44.4512 21.3118
210.312 -47.0095 -10.9038
-243.327 19.0642 11.4766
-152.447 66.9287 -20.4761
-203.414 -49.9296 -13.6089
-245.151 12.6118 15.0666
-245.479 15.1624 11.6808
-229.133 -23.8413 -27.345
232.998 15.6553 29.1959
235.309 12.814 28.2979
-23.6986 0.636217 -87.6061
233.155 19.4879 26.6227
-5.55974 78.367 39.9854
-2.74912 77.2063 42.2168
113.815 -33.5702 70.9302
116.73 -35.3043 69.4937
1.33058 78.2987 40.1633
-203.253 -45.9176 -24.0361
-206.469 -43.5814 -25.0106
-107.545 -20.9072 -76.752
-216.957 28.7668 33.9652
-104.937 -24.6119 -76.0926
-101.127 -22.7592 -77.2915
66.2062 -77.0019 -35.75
74.445 -76.193 -35.498
70.4976 -75.7342 -37.4147
28.2734 -0.129169 87.4421
-235.335 8.03744 29.9809
-223.546 -22.2857 33.6028
-232.292 10.9177 31.9142
-149.782 68.5809 -17.146
99.1433 -80.7018 -5.27244
101.558 -80.4859 -1.80681
-127.658 -26.8174 -70.9198
-127.248 -30.3878 -69.557
-192.558 -9.3061 55.8375
-188.173 -16.3594 56.0465
-155.655 -16.1087 67.2175
47.3456 -7.84019 86.0703
[...]
POINT_DATA 9548
VECTORS F double
1.30352e-07 7.31945e-08 6.82579e-09
9.05267e-09 1.13757e-07 -5.56329e-10
1.25881e-07 7.62959e-08 8.06246e-09
-9.5865e-08 6.96203e-08 -3.05587e-08
-9.58599e-08 7.24841e-08 -3.10278e-08
-6.48094e-08 8.5896e-08 -1.89497e-08
-6.70639e-08 8.14882e-08 -2.04086e-08
-2.3633e-08 1.09243e-07 5.31679e-10
-1.66872e-08 1.09222e-07 1.02919e-09
7.89278e-09 1.14527e-07 -1.53024e-09
-8.01385e-08 7.35254e-08 -2.30098e-08
7.29353e-08 8.86281e-08 4.93493e-09
8.02226e-08 -3.23116e-08 -1.74831e-08
8.08511e-08 -3.18924e-08 -1.56474e-08
-7.89711e-08 7.67638e-08 -2.09129e-08
1.57297e-07 4.66886e-08 -1.45203e-08
-1.35208e-07 -5.26281e-09 -5.95651e-09
-1.3824e-07 -3.94297e-09 -7.58015e-09
1.65411e-07 4.12581e-08 -8.21021e-09
-1.29837e-07 4.39302e-08 -2.68215e-08
-1.30579e-07 4.26814e-08 -2.71417e-08
-6.77507e-08 -1.24829e-08 -1.8397e-09
8.90385e-08 9.31393e-08 6.22653e-09
-9.2708e-08 6.40376e-08 6.95789e-09
-1.37986e-07 -7.5333e-09 -6.40109e-09
-5.39645e-08 -7.48916e-09 7.29699e-10
-1.37135e-07 -8.5384e-09 -5.76262e-09
-2.30351e-09 9.30335e-08 -1.17798e-08
3.11253e-09 9.6295e-08 -8.88304e-09
-8.29554e-08 6.48185e-08 2.26675e-08
-8.29118e-08 6.76016e-08 2.23649e-08
-6.24313e-08 6.91518e-08 2.13801e-08
1.96462e-07 8.07726e-09 4.36157e-08
-3.42498e-08 2.38176e-08 8.46815e-10
-3.67202e-08 1.8551e-08 -1.46594e-10
2.30077e-07 5.78093e-09 4.68322e-08
-6.14382e-08 7.15288e-08 2.11448e-08
-9.30306e-08 6.3341e-08 4.96406e-09
6.94638e-08 8.87495e-08 -1.23973e-09
1.62105e-07 5.17012e-08 7.93749e-09
1.60102e-07 5.3587e-08 6.99653e-09
7.09803e-08 8.79469e-08 -1.31331e-09
8.93279e-08 8.32531e-08 -2.6683e-09
2.23791e-07 3.58919e-08 3.62913e-08
2.2024e-07 3.69401e-08 3.48296e-08
-3.47879e-08 3.5961e-08 1.83236e-09
1.28581e-07 6.07119e-08 -4.0258e-09
3.2715e-08 9.48646e-08 2.93071e-09
-1.57829e-07 -2.24171e-09 -5.95505e-09
-1.58254e-07 -2.3641e-09 -6.83658e-09
4.58322e-08 9.29158e-08 3.68808e-09
-9.29518e-08 6.63297e-08 -2.79272e-08
-1.3419e-07 4.15241e-08 -2.80585e-08
-1.3945e-07 3.78953e-08 -2.61741e-08
-1.36552e-07 4.13662e-08 -2.86641e-08
-1.3484e-07 4.26854e-08 -2.80815e-08
-9.33635e-08 6.58002e-08 -2.57396e-08
1.60227e-07 5.55561e-08 8.58674e-09
1.62283e-07 5.37306e-08 9.78869e-09
2.18777e-07 2.99923e-08 1.16439e-08
2.16888e-07 3.12907e-08 1.09192e-08
-1.16229e-07 5.13354e-08 -2.64519e-08
-1.17172e-07 4.80089e-08 -2.47825e-08
-1.00306e-07 -1.8892e-08 -8.38822e-11
-9.94239e-08 -1.84433e-08 -1.09425e-09
1.60979e-08 8.11085e-08 4.15125e-09
3.95838e-09 8.34639e-08 5.04067e-09
-2.57932e-08 9.62966e-08 -1.44158e-08
-5.57371e-09 1.1264e-07 -6.90677e-09
6.78502e-08 -3.90609e-08 7.54452e-09
6.86905e-08 -3.98991e-08 8.935e-09
1.80698e-07 6.23608e-08 5.81848e-08
1.92928e-07 5.53216e-08 5.43437e-08
6.87347e-08 -3.83996e-08 9.97012e-09
1.43235e-07 6.44761e-08 1.14573e-08
-1.6522e-08 8.29664e-09 7.77345e-10
6.05075e-08 -3.67252e-08 -8.64556e-09
6.45794e-08 -3.4743e-08 -6.14019e-09
6.07344e-08 -3.77273e-08 -7.36237e-09
-1.58495e-07 -1.34174e-09 -5.51734e-09
-1.56981e-07 -1.37222e-09 -4.66768e-09
-1.59717e-07 -3.04482e-10 -5.37594e-09
-7.04038e-09 1.00551e-07 -1.05114e-08
-2.34338e-08 -8.87238e-09 -2.08699e-09
-1.27606e-08 1.00887e-07 -1.24564e-08
-6.37513e-08 8.22872e-08 -2.39114e-08
-6.48161e-08 7.87181e-08 -2.55854e-08
1.73136e-07 6.03059e-08 4.91712e-08
1.66998e-07 6.46555e-08 5.03026e-08
-2.56541e-08 9.98745e-08 -1.32381e-08
1.05682e-07 8.74562e-08 2.18299e-09
1.18826e-07 8.3554e-08 3.48023e-08
1.19331e-07 8.48642e-08 3.86927e-08
-1.37666e-07 3.39781e-08 -1.92991e-09
1.078e-07 8.31449e-08 3.19966e-08
-1.40589e-07 3.44622e-08 1.566e-09
1.10727e-07 8.38465e-08 1.62493e-10
1.16734e-07 8.10225e-08 2.95564e-09
-6.78231e-08 -5.48823e-08 -4.88256e-09
-6.37051e-08 -5.6404e-08 -5.79036e-09
6.03398e-08 7.37572e-08 -3.64091e-09
5.52162e-08 7.69094e-08 -2.56043e-09
9.08215e-08 7.01697e-08 -2.13216e-08
8.99243e-08 6.92203e-08 -1.86923e-08
-1.49274e-07 2.36902e-08 -2.03608e-08
5.4852e-08 8.34129e-08 -2.46439e-09
-4.60942e-08 -6.28131e-08 -1.80456e-09
-5.05742e-08 -6.32115e-08 -1.51826e-09
-8.76998e-08 7.37309e-08 -2.6806e-08
-9.12483e-08 7.27749e-08 -2.92739e-08
1.23409e-07 6.76949e-08 -1.19306e-09
-1.48496e-07 2.29207e-08 -2.04537e-08
-1.02024e-07 6.66258e-08 -2.92047e-08
-1.01167e-07 6.69296e-08 -3.02286e-08
-1.46627e-07 2.346e-08 -1.99613e-08
-4.34073e-08 9.27805e-08 -1.77464e-08
1.0438e-07 7.90922e-08 1.49522e-08
1.19771e-07 7.40376e-08 1.9604e-08
-1.4361e-07 3.28062e-08 1.24104e-08
-1.44632e-07 3.03916e-08 9.15854e-09
-1.17292e-07 4.65067e-08 2.2008e-08
-1.12818e-07 5.08679e-08 2.51855e-08
1.15036e-07 7.38625e-08 1.61202e-08
1.06468e-07 7.81413e-08 1.74954e-08
-6.29529e-08 7.10594e-08 -1.13653e-08
-6.36359e-08 6.95414e-08 -1.21691e-08
1.13945e-07 7.22573e-08 -2.18762e-09
6.20177e-08 9.33476e-08 4.87274e-09
6.721e-08 8.94895e-08 6.28273e-09
-1.50334e-07 3.20551e-08 -2.27543e-08
-1.51556e-07 3.35471e-08 -2.4988e-08
1.11621e-07 7.08258e-08 -3.38532e-10
-7.87777e-08 6.64988e-08 1.18713e-08
-9.22579e-08 5.77053e-08 9.6965e-09
-8.85722e-08 6.22528e-08 1.23053e-08
-1.64103e-07 1.54165e-08 1.86228e-09
-1.63537e-07 1.55922e-08 4.7817e-11
-1.64294e-07 1.69714e-08 8.25522e-10
1.41068e-07 6.63376e-08 9.05414e-09
2.43292e-08 9.80633e-08 -6.39089e-09
1.13648e-08 9.61934e-08 -7.94562e-09
1.36082e-07 6.90368e-08 1.07877e-08
-2.35942e-08 1.02178e-07 -1.31414e-08
-9.09302e-08 6.47327e-08 -2.6899e-08
-9.07811e-08 6.63757e-08 -2.93479e-08
-4.98096e-08 7.96545e-08 1.64312e-08
-5.45821e-08 7.48003e-08 1.75507e-08
-1.07052e-07 5.90593e-08 -2.58694e-08
-1.06937e-07 5.5669e-08 -2.51151e-08
1.16897e-07 8.0804e-08 3.60627e-08
1.27704e-07 7.59548e-08 3.46312e-08
-1.29727e-08 1.08507e-07 -1.03968e-08
-5.01809e-08 -5.03842e-08 -5.09266e-09
-4.33886e-08 -5.11596e-08 -4.73516e-09
-4.10572e-08 -5.343e-08 -4.2145e-09
-1.05148e-07 6.20879e-08 -3.18868e-08
-9.9192e-08 6.62527e-08 -3.34802e-08
-1.11041e-07 4.89666e-08 1.74151e-08
-1.10407e-07 4.72826e-08 1.31365e-08
-5.38855e-08 8.73119e-08 -2.01428e-08
-4.26315e-08 8.8167e-08 -1.96637e-08
-9.45616e-08 6.32734e-08 -3.10915e-08
-9.53756e-08 6.72807e-08 -3.30865e-08
-6.31194e-09 9.42562e-08 -1.27135e-08
-1.03932e-08 9.06581e-08 -1.53726e-08
-1.00928e-07 5.4658e-08 2.33978e-08
-1.00612e-07 5.24853e-08 2.06527e-08
2.4009e-07 2.79546e-08 3.46045e-08
2.46628e-07 2.42834e-08 2.88557e-08
1.13692e-07 6.82834e-08 -1.49541e-09
1.16014e-07 6.63355e-08 -3.47e-09
2.47969e-07 2.38938e-08 3.43298e-08
2.73622e-07 1.15378e-08 2.82946e-08
1.22586e-07 7.75908e-08 6.23162e-09
-1.42129e-08 1.12564e-07 -7.91138e-09
2.61869e-07 1.64421e-08 3.42176e-08
2.70065e-07 1.36904e-08 3.01056e-08
6.97561e-09 1.10701e-07 -6.39382e-09
6.87247e-08 7.84492e-08 -3.67579e-09
4.44043e-08 9.54319e-08 1.37233e-09
5.17277e-08 9.16023e-08 2.97727e-09
3.09947e-08 8.12606e-08 5.19425e-10
4.24807e-08 8.07731e-08 5.59457e-10
-5.29353e-09 1.12438e-07 -8.29717e-09
9.48203e-08 7.1666e-08 -5.32371e-09
-4.40233e-08 1.01194e-07 3.14328e-09
-5.67447e-08 9.50038e-08 1.62067e-10
-8.38303e-09 8.40173e-08 8.30312e-09
-9.56908e-09 1.14566e-07 -4.60151e-09
1.6439e-07 6.42729e-08 4.56249e-08
1.65444e-07 6.55051e-08 4.55302e-08
-2.45827e-08 1.11187e-07 -4.65559e-09
2.16295e-07 3.57571e-08 2.96091e-08
-1.26577e-07 4.199e-08 2.02191e-08
-1.26809e-07 4.38975e-08 2.31625e-08
2.19172e-07 3.69057e-08 3.12422e-08
1.61229e-09 8.16835e-08 7.23023e-09
-1.62091e-08 -2.38274e-08 -3.49002e-09
-8.67176e-08 6.76114e-08 -2.09723e-08
-7.31046e-08 7.35675e-08 -1.78607e-08
-8.38651e-08 6.76994e-08 -1.87784e-08
-2.53087e-08 9.40604e-08 -1.49417e-08
1.75166e-07 4.97837e-08 1.12375e-08
8.42616e-08 -2.82394e-08 1.11872e-08
8.44302e-08 -2.90333e-08 1.19047e-08
1.76963e-07 4.84457e-08 1.26739e-08
-1.05221e-08 9.39026e-08 -1.39162e-08
-9.4419e-09 9.60732e-08 -1.06667e-08
-1.35644e-07 3.69347e-08 7.0411e-09
-1.36541e-07 3.48135e-08 3.99709e-09
-7.69802e-08 8.14473e-08 -1.04837e-08
-7.06813e-08 8.91959e-08 -1.15715e-08
2.4906e-08 1.07089e-07 -2.61134e-09
2.02692e-08 1.04076e-07 -5.74289e-09
2.86961e-07 3.95949e-09 8.14489e-09
2.85327e-07 5.61513e-09 7.23154e-09
2.61745e-08 1.02954e-07 -2.36627e-09
9.59422e-08 7.39457e-08 -4.52827e-09
1.3645e-07 6.86108e-08 1.14998e-08
1.39072e-07 6.62279e-08 1.20296e-08
9.26935e-08 7.19591e-08 -2.15498e-09
7.92789e-08 7.74281e-08 -3.36173e-09
8.31423e-08 7.51353e-08 -4.19414e-09
-1.545e-08 4.79617e-09 1.82868e-10
1.86002e-07 4.59203e-08 1.98068e-08
2.59537e-07 1.09769e-08 1.17152e-09
2.61711e-07 9.86095e-09 -2.55447e-10
-9.76869e-08 6.28828e-08 2.59811e-09
-9.89318e-08 5.91813e-08 8.0045e-10
1.65029e-07 6.65678e-08 5.16478e-08
-5.37796e-08 1.6221e-08 1.34743e-09
1.6513e-07 6.58504e-08 4.74068e-08
1.88504e-07 4.65289e-08 2.41085e-08
-1.37465e-08 7.89328e-08 9.68235e-09
-1.13148e-07 -2.69015e-08 -6.45436e-09
-1.1403e-07 -2.6885e-08 -6.50898e-09
1.33348e-07 7.27984e-08 7.6831e-09
-1.19001e-08 8.82949e-08 1.04034e-09
-1.39537e-07 3.47793e-08 1.92282e-08
-1.40186e-07 3.4964e-08 1.78092e-08
1.55553e-07 5.94885e-08 2.40431e-08
1.57683e-07 6.07662e-08 2.49462e-08
-9.66291e-08 6.29907e-08 -3.68814e-11
-4.14758e-08 9.46637e-08 -1.72099e-08
1.71014e-07 5.30791e-08 1.56591e-08
1.7259e-07 5.18357e-08 1.79545e-08
-4.80706e-08 9.084e-08 -2.00645e-08
-4.91382e-08 8.91845e-08 -1.79179e-08
1.54568e-07 5.89285e-08 8.76873e-09
1.5668e-07 5.69308e-08 9.81069e-09
1.47048e-07 -1.87498e-08 -8.34355e-09
1.12015e-08 9.69375e-08 -7.78919e-09
1.51628e-07 6.11726e-08 1.31527e-08
1.5315e-07 6.00179e-08 1.49832e-08
8.68091e-08 8.18469e-08 -5.86739e-10
7.64877e-08 8.44964e-08 -2.34636e-09
3.65441e-08 9.82318e-08 3.15415e-09
2.27072e-08 1.01221e-07 1.16888e-09
1.9752e-07 4.65177e-08 3.36116e-08
1.96158e-07 4.55874e-08 3.43016e-08
-7.6129e-08 7.35345e-08 -2.62553e-08
-7.55597e-08 7.69863e-08 -2.55545e-08
2.40765e-07 2.65471e-08 2.80268e-08
2.43476e-07 2.67744e-08 2.96642e-08
2.19849e-09 9.23855e-08 -9.71736e-09
1.4818e-07 -1.98148e-08 -1.04878e-08
1.84319e-07 3.57631e-08 -1.16009e-08
1.93267e-07 3.50355e-08 -1.13007e-08
1.3019e-07 7.3022e-08 5.92673e-09
1.50158e-07 -1.68123e-08 -7.02337e-09
-1.55269e-07 2.92974e-08 -2.18149e-08
-1.51915e-07 3.24798e-08 -2.47679e-08
-1.51516e-07 3.10387e-08 -2.32726e-08
1.85309e-07 3.80591e-08 -6.546e-09
1.80257e-07 3.7664e-08 -5.26617e-09
1.33874e-08 8.64932e-08 4.402e-09
1.27548e-08 -3.67463e-08 -7.409e-09
1.3585e-08 -3.48448e-08 -8.10122e-09
-6.14752e-08 -4.08595e-08 -4.69422e-09
-5.55295e-08 -3.92011e-08 -3.30414e-09
1.83058e-09 9.02902e-08 5.4536e-09
-2.61252e-08 -5.17662e-08 -1.81768e-09
-2.69018e-08 -5.35863e-08 -1.79708e-09
1.68043e-07 4.59056e-08 -2.76206e-08
1.49469e-07 5.51213e-08 -3.08997e-08
-1.91994e-08 9.511e-08 -1.7299e-08
-6.81968e-08 1.54966e-08 -4.31823e-09
-2.51355e-08 9.11883e-08 -1.94949e-08
-6.6202e-08 5.4835e-08 8.81945e-09
-6.62581e-08 5.86293e-08 8.84078e-09
1.78648e-07 5.04646e-08 2.14603e-08
-5.63288e-08 -3.9907e-08 -3.26269e-09
1.76657e-07 4.94799e-08 2.09307e-08
1.54715e-07 5.18179e-08 -3.06632e-08
3.22724e-09 -5.79102e-09 1.53006e-09
4.56531e-08 9.57737e-08 4.09408e-09
-4.27674e-08 -3.8333e-08 -1.37225e-09
-4.13024e-08 -3.92162e-08 -1.97873e-09
1.56311e-07 4.75593e-08 -4.97137e-09
-3.17557e-08 -6.79933e-09 -2.05018e-09
1.51008e-07 4.65714e-08 -3.36184e-09
1.27457e-07 7.56382e-08 5.21404e-09
-1.2581e-08 8.23131e-09 -1.32266e-09
-1.26903e-08 2.45167e-09 -1.4245e-10
-7.90707e-08 3.31787e-08 -8.07971e-09
-7.87568e-08 2.96622e-08 -7.76554e-09
2.31477e-07 2.04923e-08 -1.34241e-08
-1.08042e-07 -2.932e-08 -4.33611e-09
-1.08531e-07 -2.892e-08 -4.58989e-09
2.38888e-07 1.73479e-08 -8.133e-09
2.41314e-07 1.5964e-08 -9.07559e-09
-1.31393e-07 -1.46827e-08 -7.57723e-09
-1.35132e-07 -1.47273e-08 -8.53091e-09
6.78266e-08 7.68634e-08 -1.71892e-09
5.57823e-08 7.97826e-08 -2.47566e-09
5.45285e-08 7.84771e-08 -1.16802e-10
1.55352e-07 5.1212e-08 2.27975e-09
-1.17416e-08 9.54751e-08 4.96093e-09
1.53707e-07 5.24314e-08 4.127e-09
1.53417e-07 5.30129e-08 3.44867e-09
-6.19892e-08 8.31055e-08 -2.85796e-08
-7.18687e-08 8.08044e-08 -2.97167e-08
-8.30897e-08 7.81756e-08 -2.68019e-08
-1.2108e-07 4.45481e-08 1.90847e-08
-1.20855e-07 4.35727e-08 1.58266e-08
-8.99611e-08 7.17484e-08 -2.63106e-08
-8.96107e-08 7.37025e-08 -2.6152e-08
1.67798e-07 4.63326e-08 4.66235e-09
1.69967e-07 4.54416e-08 2.82044e-09
1.36287e-07 6.8306e-08 2.18039e-08
1.4406e-07 6.52912e-08 1.97256e-08
1.17367e-07 7.64084e-08 1.4089e-08
1.34347e-07 6.64644e-08 1.9414e-08
4.79411e-10 1.10671e-07 1.21713e-09
1.14164e-07 6.8891e-08 -2.60654e-09
9.80187e-09 8.24539e-08 5.91869e-09
-1.0781e-09 8.40435e-08 8.29329e-09
-7.28603e-08 7.78519e-08 -3.10657e-08
-2.18882e-09 8.02719e-08 7.48939e-09
9.3876e-08 -4.44867e-08 3.4343e-08
-1.26461e-07 -2.12067e-08 -9.42684e-09
-1.24905e-07 -2.27894e-08 -1.03531e-08
1.47101e-07 6.11286e-08 7.4546e-09
1.49512e-07 6.11789e-08 8.01475e-09
9.23128e-08 -4.83077e-08 3.61236e-08
-1.00885e-08 8.09455e-08 9.78196e-09
-4.67389e-09 8.64484e-08 7.3697e-09
1.21075e-07 6.90696e-08 8.44043e-10
-8.13019e-08 -4.3899e-08 -2.72789e-09
6.49113e-08 1.02135e-07 -1.16228e-09
1.70684e-07 5.26457e-08 1.64998e-08
-1.06351e-07 5.77927e-08 -1.74159e-08
4.32527e-08 1.0481e-07 -1.5685e-09
5.31538e-08 1.071e-07 -2.25756e-09
-5.60255e-08 8.83733e-08 -1.95746e-08
2.54374e-08 -6.07211e-08 7.70611e-09
2.20049e-08 -6.39273e-08 6.54579e-09
-3.82065e-08 6.0152e-08 1.70215e-09
3.39741e-08 -6.02194e-08 7.65359e-09
2.37346e-07 2.09037e-08 -3.69285e-08
2.43345e-07 2.37702e-08 -4.1531e-08
-6.42929e-08 -4.17793e-08 -7.14295e-09
-6.39048e-08 -4.15126e-08 -7.94727e-09
2.42065e-07 2.43843e-08 -4.85193e-08
-9.55235e-08 6.40118e-08 -2.33908e-08
-9.34411e-08 6.82665e-08 -2.45154e-08
-4.65044e-08 9.60627e-08 -1.81897e-08
8.40688e-08 7.86257e-08 -8.46583e-10
-5.48421e-08 8.86381e-08 -1.94102e-08
-5.4788e-08 9.2099e-08 -1.83432e-08
-1.30945e-07 -1.13271e-08 -5.29215e-09
-1.28016e-07 -1.30049e-08 -4.9552e-09
-1.29271e-07 -1.26843e-08 -4.14571e-09
-3.82569e-08 -1.55511e-08 1.4915e-09
2.88301e-08 9.61313e-08 1.93581e-09
-4.92776e-08 7.96835e-08 1.27112e-08
3.55944e-08 9.42545e-08 -5.24255e-10
1.76018e-07 5.07142e-08 1.45944e-08
-1.29714e-07 -1.91007e-08 -6.26588e-09
-1.28062e-07 -1.96337e-08 -6.6767e-09
-5.27439e-08 9.15638e-08 -2.30001e-08
-6.31421e-08 8.84207e-08 -2.44867e-08
-7.98927e-09 8.18121e-08 1.02621e-08
-2.14282e-08 7.93902e-08 1.43651e-08
-2.29293e-08 8.17881e-08 1.30999e-08
-4.53479e-08 -3.18327e-08 1.544e-10
-4.33567e-08 -3.471e-08 6.5969e-10
2.00041e-07 3.35964e-08 -5.34046e-08
2.00196e-07 3.42388e-08 -5.02234e-08
-2.44204e-08 7.87095e-08 1.48141e-08
-2.17977e-08 7.9871e-08 1.10446e-08
-1.61993e-07 1.79445e-08 -1.63303e-08
1.2206e-07 7.4152e-08 2.59691e-08
-1.6415e-07 1.65723e-08 -1.46276e-08
3.87581e-08 9.89626e-08 1.37991e-08
4.3217e-08 1.02155e-07 1.8262e-08
-1.63737e-07 1.62717e-08 -1.31787e-08
8.71943e-09 8.04464e-08 4.82264e-09
4.03838e-09 8.24806e-08 7.13316e-09
1.21016e-07 7.6927e-08 7.26271e-09
2.28936e-07 3.10778e-08 2.85959e-08
1.46233e-07 6.29936e-08 9.16753e-09
1.1447e-07 7.92219e-08 8.9915e-09
-7.60231e-09 7.94559e-08 1.08638e-08
1.7796e-07 -2.06049e-08 4.92967e-09
1.79618e-07 -1.98169e-08 7.8337e-09
1.59685e-08 -4.56337e-08 -7.72902e-09
1.87925e-08 -4.21982e-08 -7.89475e-09
1.23189e-07 7.72411e-08 8.08872e-09
1.11672e-07 6.25115e-08 -3.4314e-09
-1.34876e-08 9.05073e-08 7.9922e-09
1.05159e-07 6.66551e-08 -5.15979e-09
2.2882e-07 -7.22283e-09 3.16951e-08
2.09723e-07 -1.36602e-08 7.85313e-09
1.25817e-07 7.23865e-08 1.75993e-08
-5.93308e-08 -2.21036e-09 -2.53075e-09
1.17985e-07 7.2182e-08 1.48851e-08
1.15566e-07 7.62763e-08 1.15035e-08
-1.62644e-07 1.37786e-08 -1.47889e-08
-1.61442e-07 1.57053e-08 -1.6607e-08
-1.3934e-07 3.55337e-08 1.93973e-08
-1.41436e-07 3.19012e-08 1.64093e-08
-1.59944e-07 1.65526e-08 -1.69409e-08
-1.59139e-07 2.42122e-08 -1.29362e-08
-1.59473e-07 2.35608e-08 -1.18506e-08
-8.24446e-08 6.38454e-08 1.56477e-08
-8.26824e-08 6.26679e-08 1.24608e-08
1.77647e-07 4.91993e-08 1.63544e-08
8.17903e-08 8.6852e-08 4.29115e-08
6.17826e-08 8.86556e-08 3.96142e-08
7.87931e-08 -3.40148e-08 1.53654e-08
7.90922e-08 -3.23604e-08 1.51222e-08
-5.76424e-08 -5.8361e-08 -9.71057e-10
-6.1476e-08 -5.51679e-08 -1.4515e-09
2.61567e-08 1.10702e-07 -9.48872e-10
-8.44161e-08 7.26274e-08 6.62966e-09
7.89986e-08 9.46855e-08 5.36932e-09
-9.56631e-08 6.43596e-08 -2.08155e-08
-8.58582e-08 -2.6864e-08 -3.0619e-10
-8.49655e-08 -2.64844e-08 -1.06917e-09
-1.01231e-07 5.99384e-08 -2.0196e-08
2.21227e-07 3.58814e-08 3.90669e-08
-8.57498e-08 6.87935e-08 7.58635e-09
8.92422e-08 9.29441e-08 5.39536e-09
1.57186e-07 5.87872e-08 1.19656e-08
1.58822e-07 5.79749e-08 1.43572e-08
-1.10357e-07 4.96348e-09 -7.27389e-09
-1.08945e-07 7.261e-09 -7.88157e-09
-1.50286e-07 2.78167e-08 -8.36526e-10
-1.52814e-07 2.81591e-08 2.49429e-09
1.63252e-07 5.5305e-08 1.20814e-08
3.92965e-08 -6.26344e-08 3.67802e-09
1.70904e-07 3.99137e-08 -9.94544e-09
1.8299e-07 3.84603e-08 -7.80966e-09
2.46984e-07 1.68219e-08 4.22685e-09
1.36817e-07 6.72001e-08 5.33456e-09
-2.65225e-08 7.89072e-08 1.30173e-08
-1.09591e-07 1.37543e-08 -1.00779e-08
-1.08524e-07 1.19132e-08 -9.33527e-09
2.40208e-07 1.93148e-08 4.76613e-09
1.36641e-07 6.42705e-08 3.62862e-09
1.38894e-07 6.16227e-08 3.5168e-09
2.42805e-07 1.88493e-08 2.68189e-10
4.54516e-08 9.24739e-09 -6.32723e-09
-7.68455e-08 -3.75927e-08 -8.56966e-10
-7.14278e-08 -3.6959e-08 -1.04422e-09
1.07719e-07 7.72842e-08 1.33788e-08
1.08008e-07 7.73312e-08 1.54058e-08
1.04956e-07 7.92579e-08 1.28902e-08
9.41162e-08 8.37571e-08 1.13266e-08
8.81305e-08 8.78978e-08 1.12582e-08
-7.91147e-08 7.34893e-08 -3.02551e-08
-8.72165e-08 6.80743e-08 -2.78446e-08
-8.53785e-08 -4.37398e-08 -4.75506e-09
-8.34817e-08 -4.48073e-08 -3.6021e-09
1.18872e-07 7.38356e-08 1.34064e-08
-1.01035e-07 6.14595e-08 -1.76676e-08
2.33959e-07 1.96597e-08 -1.8147e-08
2.3206e-07 1.96797e-08 -1.45425e-08
5.30465e-09 2.68247e-08 8.16743e-09
-7.16214e-09 9.96075e-08 -1.17165e-08
-3.45808e-08 7.87102e-08 1.4667e-08
-4.75252e-08 8.17867e-08 1.32548e-08
-5.24234e-08 -1.81415e-08 -1.53112e-09
-1.03422e-08 9.89227e-08 -1.46346e-08
-4.27618e-08 -4.83736e-08 -6.29424e-09
-4.18748e-08 -4.80387e-08 -4.88767e-09
7.36471e-09 9.78795e-08 -9.59612e-09
1.4341e-07 6.59001e-08 1.01487e-08
-2.90721e-08 -4.9725e-08 -9.57845e-10
-2.95071e-08 -5.15789e-08 -1.8422e-09
1.40924e-07 6.61672e-08 8.4269e-09
6.13717e-09 1.06617e-07 -6.63685e-09
1.55394e-07 5.90106e-08 1.08249e-08
2.33725e-07 1.95399e-08 -1.7339e-08
-1.54264e-07 4.90074e-10 -9.74962e-09
-1.52385e-07 7.98534e-10 -9.81461e-09
-7.67944e-08 -1.75857e-08 -5.3227e-10
-7.00167e-08 -1.73031e-08 -7.87238e-10
2.21952e-07 2.41084e-08 -2.24016e-08
3.03329e-08 1.1058e-07 -2.48951e-09
4.32916e-08 7.9608e-08 -2.67625e-09
3.85547e-08 1.07113e-07 -6.35327e-10
9.53243e-08 9.09076e-08 2.90493e-08
9.1679e-08 9.39665e-08 2.72866e-08
8.44338e-08 -3.52895e-08 2.3534e-08
8.97233e-08 -3.41941e-08 2.30132e-08
8.95123e-08 8.835e-08 2.51302e-08
1.14407e-07 7.86799e-08 -9.47614e-10
3.13612e-08 7.82286e-08 -1.32759e-09
1.09912e-07 8.26263e-08 1.29083e-09
8.47494e-08 -4.07618e-08 2.77868e-08
9.45322e-08 -4.22487e-08 3.08428e-08
8.684e-08 7.86429e-08 -3.00493e-09
7.71342e-08 7.64771e-08 -1.61853e-09
6.88724e-08 8.16768e-08 -3.57945e-09
-1.40141e-07 -1.25345e-08 -7.0419e-09
-1.40973e-07 -1.28162e-08 -6.57135e-09
1.31838e-07 -3.36402e-08 3.64233e-08
1.26128e-07 -3.47841e-08 3.528e-08
4.35869e-08 1.00666e-07 1.60647e-08
5.78274e-08 1.0087e-07 1.90097e-08
6.5456e-08 8.30629e-08 -1.57096e-09
-1.14587e-07 -2.57526e-08 -5.07987e-09
-3.92612e-08 7.69042e-08 1.54158e-08
-4.98476e-08 7.45129e-08 1.50909e-08
-4.98326e-08 7.31738e-08 1.72288e-08
3.09818e-07 -1.16902e-08 3.87487e-08
2.92258e-07 -1.12028e-08 3.22187e-08
-1.00315e-07 6.04569e-08 -2.90496e-08
-1.00401e-07 5.89894e-08 -2.62073e-08
-1.25375e-07 2.73806e-08 1.29438e-08
-1.23453e-07 2.72834e-08 1.22249e-08
1.13146e-07 8.36973e-08 4.99142e-09
1.16526e-07 8.13207e-08 7.26516e-09
-1.5684e-07 2.59403e-08 -1.64709e-08
1.22866e-07 7.78396e-08 5.39958e-09
1.51826e-08 8.54555e-08 -1.53163e-08
1.6237e-08 -5.47357e-08 1.05826e-08
8.46206e-09 -5.60242e-08 9.62769e-09
6.81899e-09 -5.57878e-08 7.87008e-09