# vtk DataFile Version 2.0
S, Created by Mohamad Ibrahim Cheikh
ASCII
DATASET UNSTRUCTURED_GRID
POINTS 9548 double
-208.976 47.1081 -13.3488
-249.698 2.81491 10.1319
-212.278 44.76 -14.953
-106.773 -46.2004 -64.9135
-110.613 -45.3252 -64.743
-229.237 -26.3669 -24.802
-226.052 -28.902 -25.5452
-249.635 -6.3327 8.62041
-248.856 -4.44715 11.925
-250.687 2.53815 6.59669
-217.307 -36.5605 -25.0178
-204.209 23.4024 -45.7256
97.4221 59.3403 -55.3239
101.387 58.4474 -55.4021
-220.862 -34.2242 -24.5055
-116.011 62.6751 46.5627
39.2031 -75.1362 -43.708
35.8659 -76.8102 -41.0694
-112.733 64.6253 44.8511
-67.2097 -60.3645 -59.5575
-69.9008 -62.2373 -57.2041
54.1715 -24.009 -82.5123
-229.09 28.6115 -22.3595
-217.837 -40.2899 17.6365
47.8631 -79.4398 -33.9535
19.9297 -9.23404 87.2359
51.5978 -78.7389 -34.9032
-188.916 -7.58797 -57.593
-190.538 -4.24547 -57.2815
-99.7108 -39.9294 70.2311
-103.685 -38.5641 70.2894
-181.678 -35.1887 49.6459
37.4272 79.6992 -34.9363
8.92642 4.78592 -87.8142
12.6829 2.46405 -87.8535
37.3161 80.9779 -31.8763
-178.531 -33.8721 51.9076
-219.589 -40.3857 14.4726
-229.61 22.6702 27.8467
-169.85 64.6298 5.91498
-174.098 63.2006 6.22967
-226.525 23.1153 30.4521
-223.563 30.4909 26.3662
-68.5812 80.275 -26.9088
-68.2111 79.0788 -30.3464
-2.656 4.28656 -87.8906
-185.628 50.4811 31.2564
-171.597 9.49358 -63.6306
3.6123 -85.8961 19.0859
4.73436 -86.6604 15.2065
-170.596 13.097 -63.3195
-192.128 -46.4452 -32.6732
-70.812 -64.5029 -54.4929
-69.099 -66.721 -52.036
-77.5065 -66.3529 -51.0472
-75.7153 -64.3684 -53.8409
-195.474 -45.8384 -31.0609
-176.315 62.7453 -1.01593
-171.997 64.1892 -1.37351
-92.3506 81.776 3.53826
-96.4478 81.186 3.73681
-163.224 -60.1299 -29.4378
-159.302 -61.9335 -28.3073
84.9989 -55.2289 -61.7189
89.1471 -55.4822 -60.768
-199.165 2.33078 53.6856
-200.551 -1.79564 53.0708
-224.929 -12.6658 -37.2754
-248.384 -2.01187 -13.6623
209.682 46.8895 12.7482
207.261 47.1427 16.1951
-35.4413 66.0791 -56.7782
-32.8208 68.1217 -54.5119
204.055 48.7853 16.3149
-189.847 55.0347 -17.3949
23.1142 13.7832 -86.5368
196.354 46.4012 -29.5067
194.348 48.8597 -27.0625
200.077 44.8946 -28.7659
-0.513459 -85.4735 20.9344
-0.562857 -84.3178 25.1887
-4.32587 -85.9383 18.8763
-228.684 -5.44877 -36.2164
41.972 6.72565 -86.5048
-230.569 -7.50982 -34.3358
-207.826 -30.7318 -38.8791
-203.857 -33.1129 -39.4922
-57.149 65.5602 -55.1906
-59.9753 63.7267 -56.9431
-230.875 -11.3361 -33.0081
-231.272 34.44 3.07935
-102.144 45.6953 -66.1707
-98.1878 47.2655 -65.8
-145.511 -71.5842 5.23587
-118.098 43.7779 -64.1867
-143.436 -71.7381 8.87572
-227.66 37.0963 4.73178
-224.26 39.7814 2.02427
228.178 -35.6125 10.0689
230.025 -33.2911 12.5581
-185.344 21.5351 55.4478
-188.798 18.6674 55.0595
-92.4092 37.0823 72.9617
-88.9818 34.5838 74.6899
-46.0959 -73.8384 -45.0748
-213.396 18.6974 42.6518
239.922 -21.3047 -15.5791
239.925 -23.4096 -12.181
-98.5684 -39.7184 -70.5475
-100.757 -42.6903 -68.4005
-204.342 46.2764 22.1433
-42.1265 -73.7368 -45.7123
-98.7845 -47.0815 -65.8226
-93.98 -47.1815 -66.6076
-40.102 -71.821 -48.8759
-231.443 -18.5216 -29.0319
-174.668 38.0749 -50.5872
-170.096 46.0657 -45.6037
-120.492 -73.3739 24.1413
-116.951 -74.5821 22.5156
-136.379 -61.3596 41.2538
-139.218 -59.031 43.4331
-168.355 43.1175 -49.1403
-170.896 40.1249 -50.5801
-50.498 -18.699 -84.1555
-54.0972 -20.4331 -83.4757
-210.965 41.7186 23.5503
-203.115 19.3242 -48.1624
-200.186 22.0917 -48.4729
-101.763 -76.2665 -25.6819
-99.2086 -75.6845 -28.4756
-208.815 40.6918 27.3814
-215.657 -35.9569 27.5154
-206.11 -44.1982 24.2803
-209.089 -41.3493 26.1114
-63.102 -83.5618 16.5509
-65.783 -83.8517 13.5308
-70.2894 -83.3578 13.8055
-194.465 53.2236 -16.7734
-218.723 4.11574 -43.2436
-218.507 -0.154378 -43.5715
-197.623 50.9763 -19.0764
-239.561 -9.6798 -24.9809
-185.02 -46.8598 -36.8388
-181.066 -47.1869 -38.7753
-110.728 -23.7643 75.3536
-108.47 -26.964 74.6757
-67.3892 -45.899 -71.2831
-63.4197 -46.7519 -71.1747
-105.298 47.6335 -64.1683
-103.471 50.1761 -62.5745
-241.773 -5.48042 -23.6095
193.124 -28.6287 48.5605
193.725 -24.9372 50.2733
197.186 -22.6454 49.7073
-147.706 -54.1146 -46.3092
-149.525 -51.5855 -48.432
-170.311 -57.5725 29.6344
-174.432 -57.2124 27.3061
-218.677 -24.5222 -35.89
-218.296 -21.1714 -38.2306
-160.029 -51.0111 -44.7942
-156.269 -50.1161 -47.3565
-195.984 -8.67177 -54.4636
-194.121 -11.7276 -54.7077
-161.589 -53.7219 40.7577
-165.079 -53.8022 38.8971
-46.9148 82.4554 -25.993
-43.3962 83.3418 -23.8241
-202.211 42.1665 30.9818
-198.231 44.3389 31.098
-38.4004 83.7266 -23.5227
-15.8571 86.4583 -15.4328
-217.304 43.1402 -10.0801
-249.369 -4.26905 -10.6049
-22.1742 85.4721 -19.4503
-19.6802 86.1485 -16.5835
-245.011 1.06954 -19.8324
-208.426 24.6048 42.6623
-205.241 12.6871 -49.2525
-202.657 15.9031 -49.6274
-203.461 9.41784 50.8637
-203.034 12.969 50.2882
-246.336 -2.38661 -17.5797
-198.835 35.4771 40.5592
-246.707 -13.1758 10.8975
-245.011 -17.6428 9.12083
-205.592 -7.22124 50.1695
-251.244 -2.36154 -3.1851
-72.7065 62.9455 -55.9881
-68.9228 61.8779 -57.7368
-250.74 -6.54284 -1.98599
-79.5392 79.8158 -24.472
-121.774 -64.7301 41.6954
-117.85 -64.3775 43.5792
-76.128 79.2492 -27.4593
-203.9 -3.81402 51.375
67.0849 6.71799 -84.5452
-64.0945 -34.0002 -78.0066
-63.7107 -27.0863 -80.7055
-62.0174 -31.1698 -79.3823
-217.889 -13.5352 -41.8129
-155.405 68.8546 -6.80223
170.747 64.3741 5.53013
170.141 64.1513 9.19361
-151.488 69.914 -6.81406
-217.105 -9.13956 -43.4712
-220.627 -6.99507 -41.6608
-148.505 -69.378 15.1866
-144.651 -70.7132 13.488
-237.737 -28.038 -6.18068
-241.106 -24.0223 -7.05705
-238.247 6.43003 -27.4459
-235.827 4.2588 -30.2817
-9.40648 87.9256 1.50291
-13.5894 87.8584 1.51568
-232.663 6.79372 -32.7174
-204.727 35.0601 37.1935
-192.422 51.2181 -24.2397
-188.872 53.1349 -23.5212
-202.818 33.4335 39.8748
-207.669 28.0662 40.9426
-204.688 30.2837 41.1996
27.568 14.1982 -86.3097
-125.498 72.6576 -23.1651
-29.3725 85.1821 19.5548
-25.2783 85.1923 20.2001
-219.137 -41.8763 10.5421
-215.908 -44.0878 9.64379
-55.2886 62.7195 -58.6175
-1.96918 -7.95806 87.6367
-58.1937 61.3188 -59.7444
-121.731 73.2052 -23.8905
-203.386 -10.3237 50.7245
136.541 -73.1277 10.6682
134.27 -73.2077 13.3193
-208.9 48.1251 -9.23131
-84.5923 -2.10863 82.846
-97.1187 -70.0472 41.0198
-100.585 -69.7084 40.5718
-136.206 60.9173 -41.973
-132.634 60.5177 -43.9071
-221.121 -41.2884 7.28656
-228.918 -17.7717 -31.8183
-149.439 66.4808 -24.2936
-144.835 67.7751 -24.1309
-224.395 -21.616 -33.3465
-227.2 -21.3034 -31.1499
-183.706 59.9502 -4.26618
-179.429 61.5165 -4.25417
58.0568 74.2344 -42.6683
-195.271 -1.40596 -55.4404
-173.168 58.4037 -25.7228
-169.599 59.7105 -25.634
-221.978 29.3059 29.1977
-223.622 25.911 30.8263
-160.864 9.76967 -66.9357
-162.302 5.5304 -66.9951
-91.9531 73.8731 -35.3775
-95.1425 74.8391 -32.1692
-200.303 -38.3071 -36.9394
-203.957 -36.3393 -36.4764
-56.6027 83.6542 -18.8075
-53.2567 83.4248 -20.9059
-193.861 -5.03425 -55.8341
55.0885 73.4695 -44.4375
-88.1 70.1089 43.3415
-87.4255 72.3423 39.684
-211.704 47.0447 -6.60674
52.0599 74.4395 -43.2545
-94.0365 -78.1389 -23.5727
-92.2965 -75.8753 -30.7245
-94.7068 -76.7662 -27.4375
-108.714 71.2534 34.9282
-108.538 69.4075 38.5267
-216.792 2.09452 44.5591
117.908 20.0328 -75.1041
114.46 22.7779 -74.9747
76.8482 -23.5473 80.4145
76.0138 -20.1877 81.4189
-219.007 -1.80248 43.2257
147.093 -11.7227 70.4104
143.059 -11.3572 71.4799
-59.2454 62.2469 58.648
-65.5182 57.2849 62.7446
-180.033 -14.9982 -59.589
11.5855 -17.5961 -86.1275
-178.513 -18.3973 -59.1951
-46.5957 -20.2103 84.0817
-50.5177 -19.4446 83.9849
-127.755 69.0604 -31.2479
71.5199 -19.2193 82.1485
-130.432 69.5515 -28.701
-62.0879 59.3214 61.2619
23.3453 23.8612 84.3085
-193.043 13.8919 -54.6679
174.656 -21.8611 -59.4254
177.413 -20.0284 -59.0705
-146.744 62.917 33.898
40.6547 2.84882 -86.7959
-145.765 60.9119 37.847
-215.05 45.1295 -6.73401
12.3137 16.2276 86.3835
16.7494 15.6754 86.3941
-11.01 -23.6563 -84.6731
-6.87338 -24.2023 -84.5722
-43.1899 80.9997 30.8977
154.75 -69.0219 -6.93405
153.247 -69.0334 -10.1567
-39.8555 81.9622 28.8396
-35.3362 82.5747 27.7947
42.7992 -72.1756 48.0668
42.9834 -74.4927 44.3693
-205.024 23.4087 45.2737
-206.656 19.3728 46.261
-204.369 17.7 48.1373
-169.081 62.2617 19.1677
-235.145 -4.86248 30.8345
-173.084 60.9401 19.0402
-174.879 61.2519 15.7469
-153.084 -34.5546 -60.67
-153.004 -37.9345 -58.6417
-89.2833 -36.5892 -73.6836
-151.775 -63.2496 30.3845
-155.505 -62.9487 28.6509
-86.8836 -39.6249 -72.4546
-83.0587 -38.2421 -73.7355
-153.982 66.6056 20.1198
-149.73 67.6527 20.5509
-154.813 52.5735 -45.2299
-157.802 55.2114 -40.5834
-192.792 43.2573 -36.3624
-158.604 52.3652 -43.8422
-248.808 0.314157 12.8366
-204.905 42.8883 27.6446
-189.899 -1.13406 57.6861
-185.143 -5.89071 59.2676
-155.962 -40.026 -56.2485
-189.558 -5.76488 57.5462
77.9413 62.6645 55.4384
83.9459 -76.2049 32.7727
88.0065 -74.9642 34.2948
-191.988 56.8439 0.227706
-190.119 57.5465 -2.66634
81.7225 61.0995 56.5083
-209.144 -8.76146 48.0829
-212.246 -5.15088 46.9272
-207.979 44.6527 21.3156
210.072 -47.1383 -10.9127
-243.135 19.362 11.4749
-151.946 67.0827 -20.4272
-203.723 -49.7612 -13.6593
-245.022 12.9174 15.0637
-245.322 15.4747 11.6758
-229.296 -23.583 -27.4016
233.071 15.4737 29.221
235.373 12.6231 28.3193
-23.8111 0.817986 -87.6009
233.254 19.3079 26.6478
-4.85939 78.4286 39.8756
-2.0308 77.2766 42.0931
113.621 -33.6949 70.9092
116.537 -35.4283 69.4702
2.04564 78.3703 40.0197
-203.531 -45.7308 -24.1042
-206.741 -43.3821 -25.082
-107.681 -20.6235 -76.8054
-216.709 28.9962 33.9641
-105.097 -24.35 -76.1498
-101.287 -22.4869 -77.3455
65.818 -77.0355 -35.7654
74.0655 -76.2316 -35.5124
70.1144 -75.7718 -37.4267
28.1617 -0.164634 87.4464
-235.248 8.31786 29.988
-223.687 -22.0531 33.6414
-232.185 11.1927 31.9141
-149.266 68.7293 -17.1028
98.7594 -80.7582 -5.29118
101.179 -80.5438 -1.82681
-127.812 -26.5477 -70.9874
-127.433 -30.1272 -69.629
-192.578 -9.06687 55.8686
-188.232 -16.1271 56.0897
-155.718 -15.8685 67.2569
47.2106 -7.92573 86.0715
[...]
POINT_DATA 9548
VECTORS F double
1.24116e-07 6.94554e-08 7.22128e-09
1.00923e-08 1.0783e-07 4.9551e-10
1.19844e-07 7.23961e-08 8.41153e-09
-9.11826e-08 6.73804e-08 -2.95938e-08
-9.11751e-08 7.01591e-08 -3.00457e-08
-6.10219e-08 8.15325e-08 -1.76256e-08
-6.31685e-08 7.72993e-08 -1.90204e-08
-2.10652e-08 1.03696e-07 1.49385e-09
-1.43552e-08 1.0366e-07 1.98304e-09
8.88442e-09 1.08582e-07 -4.37932e-10
-7.54627e-08 6.96951e-08 -2.16009e-08
6.94385e-08 8.44201e-08 5.23934e-09
8.23332e-08 -3.52313e-08 -2.00386e-08
8.29536e-08 -3.47616e-08 -1.80867e-08
-7.43727e-08 7.27877e-08 -1.95892e-08
1.51524e-07 4.49143e-08 -1.4236e-08
-1.32009e-07 -5.06528e-09 -5.78882e-09
-1.34855e-07 -3.81914e-09 -7.27578e-09
1.59175e-07 3.97345e-08 -8.26991e-09
-1.24864e-07 4.3082e-08 -2.64144e-08
-1.25409e-07 4.1722e-08 -2.66312e-08
-6.72564e-08 -1.23207e-08 -1.821e-09
8.4783e-08 8.83776e-08 6.73743e-09
-8.65371e-08 6.05571e-08 7.47935e-09
-1.34613e-07 -7.3321e-09 -6.07755e-09
-5.10294e-08 -1.26859e-09 1.29303e-09
-1.33787e-07 -8.31286e-09 -5.46099e-09
-1.8646e-09 8.88531e-08 -1.09577e-08
3.25137e-09 9.19161e-08 -8.13657e-09
-7.62668e-08 6.38442e-08 2.30415e-08
-7.62711e-08 6.6411e-08 2.26617e-08
-5.68308e-08 6.5916e-08 2.12589e-08
1.97531e-07 7.95693e-09 4.40614e-08
-3.33472e-08 2.53393e-08 9.65966e-10
-3.59341e-08 1.99673e-08 -7.51271e-11
2.3207e-07 5.56655e-09 4.74054e-08
-5.58541e-08 6.82687e-08 2.10289e-08
-8.69625e-08 5.98832e-08 5.56141e-09
6.74364e-08 8.39848e-08 -2.9512e-10
1.54939e-07 4.91302e-08 7.88666e-09
1.53008e-07 5.09109e-08 7.02334e-09
6.89331e-08 8.32156e-08 -3.87059e-10
8.61603e-08 7.87892e-08 -1.67105e-09
2.15028e-07 3.3918e-08 3.40892e-08
2.11631e-07 3.48982e-08 3.27009e-08
-3.36435e-08 3.7276e-08 1.94247e-09
1.23535e-07 5.76826e-08 -3.33845e-09
3.1442e-08 9.07705e-08 3.16167e-09
-1.52456e-07 -1.7717e-09 -4.44061e-09
-1.53019e-07 -1.95828e-09 -5.32745e-09
4.38859e-08 8.88473e-08 3.90115e-09
-8.7538e-08 6.29857e-08 -2.65137e-08
-1.28792e-07 4.05576e-08 -2.75177e-08
-1.3403e-07 3.70081e-08 -2.5662e-08
-1.30901e-07 4.02547e-08 -2.79913e-08
-1.29419e-07 4.16273e-08 -2.74846e-08
-8.79682e-08 6.24714e-08 -2.44146e-08
1.52999e-07 5.27755e-08 8.5846e-09
1.54983e-07 5.1051e-08 9.71091e-09
2.09981e-07 2.8584e-08 1.03635e-08
2.08134e-07 2.98247e-08 9.72098e-09
-1.09711e-07 4.87703e-08 -2.51423e-08
-1.10627e-07 4.55678e-08 -2.34768e-08
-9.85042e-08 -1.88109e-08 2.24024e-10
-9.76592e-08 -1.8413e-08 -7.28897e-10
1.75642e-08 7.70593e-08 4.63215e-09
6.08203e-09 7.9319e-08 5.49769e-09
-2.41473e-08 9.16451e-08 -1.3301e-08
-4.55109e-09 1.0699e-07 -5.62674e-09
6.6532e-08 -3.90112e-08 9.51079e-09
6.74378e-08 -4.00568e-08 1.09384e-08
1.75183e-07 5.89303e-08 5.51959e-08
1.87043e-07 5.21071e-08 5.13289e-08
6.74998e-08 -3.85778e-08 1.1996e-08
1.36435e-07 6.12601e-08 1.15137e-08
-1.61282e-08 9.77556e-09 1.02956e-09
6.06001e-08 -3.64457e-08 -7.94109e-09
6.48368e-08 -3.45184e-08 -5.31457e-09
6.08092e-08 -3.73209e-08 -6.46458e-09
-1.53009e-07 -8.22993e-10 -3.81964e-09
-1.51509e-07 -7.76888e-10 -3.01502e-09
-1.54109e-07 1.09315e-10 -3.82613e-09
-6.36881e-09 9.57064e-08 -9.47573e-09
-2.34599e-08 -8.08628e-09 -2.02231e-09
-1.17736e-08 9.59413e-08 -1.13047e-08
-6.00381e-08 7.82903e-08 -2.25926e-08
-6.10387e-08 7.4867e-08 -2.41984e-08
1.66972e-07 5.70071e-08 4.65502e-08
1.60992e-07 6.11851e-08 4.77141e-08
-2.39879e-08 9.50198e-08 -1.20913e-08
1.01018e-07 8.27829e-08 3.01302e-09
1.14185e-07 7.99052e-08 3.36001e-08
1.14739e-07 8.10681e-08 3.72709e-08
-1.29691e-07 3.21977e-08 -1.07069e-09
1.03335e-07 7.94566e-08 3.0915e-08
-1.3251e-07 3.27254e-08 2.32752e-09
1.05815e-07 7.93688e-08 1.07164e-09
1.11454e-07 7.67358e-08 3.69058e-09
-6.60285e-08 -5.32229e-08 -5.04771e-09
-6.21279e-08 -5.47566e-08 -5.83272e-09
5.95247e-08 7.01798e-08 -2.8965e-09
5.4661e-08 7.30912e-08 -1.83348e-09
8.92493e-08 6.77809e-08 -2.06098e-08
8.85183e-08 6.70183e-08 -1.81204e-08
-1.44048e-07 2.32013e-08 -1.99715e-08
5.39745e-08 7.90696e-08 -1.60002e-09
-4.46277e-08 -6.03353e-08 -1.63489e-09
-4.9005e-08 -6.07615e-08 -1.40316e-09
-8.35308e-08 7.16226e-08 -2.6035e-08
-8.68627e-08 7.06203e-08 -2.84105e-08
1.18311e-07 6.41586e-08 -4.13761e-10
-1.43297e-07 2.24806e-08 -2.0095e-08
-9.73358e-08 6.47034e-08 -2.83965e-08
-9.65043e-08 6.50966e-08 -2.94408e-08
-1.41735e-07 2.31078e-08 -1.97183e-08
-4.08223e-08 8.81732e-08 -1.64088e-08
9.94412e-08 7.54587e-08 1.47579e-08
1.14128e-07 7.06047e-08 1.92032e-08
-1.3542e-07 3.15647e-08 1.31863e-08
-1.36422e-07 2.92153e-08 1.00197e-08
-1.09452e-07 4.4784e-08 2.2311e-08
-1.05096e-07 4.90134e-08 2.53725e-08
1.09631e-07 7.04803e-08 1.58571e-08
1.01468e-07 7.45662e-08 1.71797e-08
-6.03405e-08 7.05251e-08 -1.12374e-08
-6.08977e-08 6.88187e-08 -1.20136e-08
1.09364e-07 6.84436e-08 -1.30111e-09
5.91351e-08 8.89173e-08 5.14325e-09
6.40316e-08 8.52982e-08 6.49928e-09
-1.43172e-07 3.06894e-08 -2.16812e-08
-1.44511e-07 3.22136e-08 -2.39792e-08
1.07259e-07 6.71057e-08 4.18661e-10
-7.30418e-08 6.29683e-08 1.21976e-08
-8.58605e-08 5.45647e-08 1.00926e-08
-8.23453e-08 5.89305e-08 1.25921e-08
-1.56775e-07 1.51463e-08 3.29107e-09
-1.56093e-07 1.52208e-08 1.41505e-09
-1.56833e-07 1.65461e-08 2.14451e-09
1.34357e-07 6.3012e-08 9.23374e-09
2.33654e-08 9.33504e-08 -5.58432e-09
1.1042e-08 9.16494e-08 -7.10445e-09
1.29563e-07 6.55829e-08 1.09239e-08
-2.19834e-08 9.7131e-08 -1.18274e-08
-8.57279e-08 6.15522e-08 -2.55821e-08
-8.55656e-08 6.31675e-08 -2.79523e-08
-4.43518e-08 7.76228e-08 1.65009e-08
-4.88318e-08 7.30329e-08 1.76868e-08
-1.02917e-07 5.81464e-08 -2.55285e-08
-1.02812e-07 5.48458e-08 -2.48102e-08
1.12214e-07 7.71572e-08 3.47311e-08
1.22431e-07 7.25167e-08 3.33625e-08
-1.17864e-08 1.03121e-07 -9.1607e-09
-5.02039e-08 -5.0507e-08 -5.33176e-09
-4.37375e-08 -5.13464e-08 -4.835e-09
-4.14462e-08 -5.35968e-08 -4.28789e-09
-9.95471e-08 5.94105e-08 -3.05512e-08
-9.38152e-08 6.33981e-08 -3.20657e-08
-1.03574e-07 4.65739e-08 1.76052e-08
-1.0298e-07 4.48628e-08 1.34586e-08
-5.0717e-08 8.30134e-08 -1.88866e-08
-4.00866e-08 8.38227e-08 -1.83961e-08
-8.92926e-08 6.04059e-08 -2.97343e-08
-9.01132e-08 6.43653e-08 -3.17103e-08
-5.67091e-09 8.98907e-08 -1.18142e-08
-9.52212e-09 8.64853e-08 -1.44031e-08
-9.36751e-08 5.22425e-08 2.33909e-08
-9.3379e-08 5.00677e-08 2.07343e-08
2.31026e-07 2.62562e-08 3.22395e-08
2.37393e-07 2.27374e-08 2.65993e-08
1.09342e-07 6.47513e-08 -7.54221e-10
1.11561e-07 6.29289e-08 -2.65834e-09
2.38736e-07 2.23689e-08 3.19047e-08
2.63966e-07 1.05678e-08 2.59973e-08
1.16765e-07 7.35825e-08 6.73155e-09
-1.26621e-08 1.0689e-07 -6.5779e-09
2.5239e-07 1.52639e-08 3.1848e-08
2.60446e-07 1.2626e-08 2.77495e-08
7.18124e-09 1.05141e-07 -5.19246e-09
6.7072e-08 7.43643e-08 -2.77039e-09
4.23923e-08 9.09197e-08 1.79239e-09
4.93127e-08 8.73189e-08 3.32707e-09
3.15922e-08 7.71523e-08 1.18653e-09
4.24718e-08 7.66168e-08 1.23495e-09
-4.35255e-09 1.06795e-07 -7.03255e-09
9.17335e-08 6.79718e-08 -4.39679e-09
-4.04844e-08 9.60721e-08 3.94838e-09
-5.2706e-08 9.01836e-08 1.10553e-09
-5.68377e-09 7.97911e-08 8.63337e-09
-8.00134e-09 1.08734e-07 -3.35426e-09
1.58114e-07 6.10577e-08 4.35067e-08
1.59132e-07 6.2224e-08 4.34296e-08
-2.22874e-08 1.05617e-07 -3.45941e-09
2.07598e-07 3.38085e-08 2.76585e-08
-1.1859e-07 4.06756e-08 2.07432e-08
-1.18874e-07 4.26882e-08 2.3704e-08
2.10401e-07 3.48848e-08 2.92641e-08
3.77704e-09 7.76004e-08 7.59635e-09
-1.64622e-08 -2.42382e-08 -3.52528e-09
-8.32042e-08 6.66761e-08 -2.06917e-08
-6.99383e-08 7.25389e-08 -1.7586e-08
-8.055e-08 6.68521e-08 -1.85453e-08
-2.36844e-08 8.95705e-08 -1.38843e-08
1.67395e-07 4.73323e-08 1.09012e-08
8.49361e-08 -2.86154e-08 1.2032e-08
8.51632e-08 -2.94776e-08 1.27318e-08
1.69142e-07 4.60629e-08 1.22408e-08
-9.73408e-09 8.94022e-08 -1.28446e-08
-8.7011e-09 9.15284e-08 -9.72679e-09
-1.27607e-07 3.51202e-08 7.66947e-09
-1.28465e-07 3.30747e-08 4.72655e-09
-7.23907e-08 7.71937e-08 -9.27658e-09
-6.63888e-08 8.46028e-08 -1.02941e-08
2.40138e-08 1.01795e-07 -1.67305e-09
1.95407e-08 9.89451e-08 -4.71619e-09
2.76924e-07 3.5197e-09 6.28873e-09
2.75358e-07 5.12113e-09 5.40525e-09
2.51271e-08 9.79317e-08 -1.54175e-09
9.27232e-08 7.01154e-08 -3.60697e-09
1.29897e-07 6.52202e-08 1.15637e-08
1.32422e-07 6.29636e-08 1.2052e-08
8.96771e-08 6.8232e-08 -1.36551e-09
7.70105e-08 7.3361e-08 -2.46593e-09
8.06984e-08 7.12387e-08 -3.27828e-09
-1.50707e-08 6.12446e-09 4.18105e-10
1.77933e-07 4.3655e-08 1.89061e-08
2.49929e-07 1.06228e-08 -3.12218e-10
2.52101e-07 9.5645e-09 -1.71341e-09
-9.1483e-08 5.94275e-08 3.24474e-09
-9.26409e-08 5.58778e-08 1.52309e-09
1.59448e-07 6.29086e-08 4.88982e-08
-4.98824e-08 2.14678e-08 1.81221e-09
1.59331e-07 6.23595e-08 4.50023e-08
1.80357e-07 4.42349e-08 2.30322e-08
-1.07776e-08 7.49725e-08 9.96811e-09
-1.10236e-07 -2.61931e-08 -6.81011e-09
-1.11167e-07 -2.62238e-08 -6.93292e-09
1.27047e-07 6.90625e-08 8.05106e-09
-7.85288e-09 8.68361e-08 1.22851e-09
-1.31562e-07 3.41694e-08 2.02138e-08
-1.3219e-07 3.42373e-08 1.87016e-08
1.48611e-07 5.66769e-08 2.3215e-08
1.50692e-07 5.79204e-08 2.41008e-08
-9.05834e-08 5.95216e-08 7.25416e-10
-3.8975e-08 9.00026e-08 -1.59397e-08
1.63317e-07 5.05039e-08 1.52094e-08
1.64855e-07 4.9313e-08 1.73616e-08
-4.51895e-08 8.63382e-08 -1.87369e-08
-4.6272e-08 8.47946e-08 -1.66711e-08
1.47485e-07 5.5961e-08 8.84881e-09
1.49523e-07 5.40738e-08 9.82009e-09
1.48096e-07 -2.00992e-08 -1.02981e-08
1.09426e-08 9.24687e-08 -7.06377e-09
1.44528e-07 5.8194e-08 1.30075e-08
1.46004e-07 5.70965e-08 1.47312e-08
8.38429e-08 7.74639e-08 2.89259e-10
7.41509e-08 7.99808e-08 -1.37084e-09
3.52011e-08 9.40498e-08 3.36975e-09
2.20954e-08 9.69436e-08 1.44909e-09
1.89387e-07 4.41321e-08 3.1887e-08
1.88036e-07 4.32496e-08 3.25295e-08
-7.17102e-08 6.9868e-08 -2.48483e-08
-7.11778e-08 7.32052e-08 -2.42042e-08
2.31508e-07 2.49666e-08 2.57465e-08
2.34212e-07 2.51719e-08 2.74008e-08
2.34151e-09 8.81756e-08 -8.94574e-09
1.48827e-07 -2.08148e-08 -1.18254e-08
1.77347e-07 3.46032e-08 -1.18384e-08
1.85838e-07 3.3837e-08 -1.15595e-08
1.24059e-07 6.92498e-08 6.41109e-09
1.50886e-07 -1.7782e-08 -8.36868e-09
-1.48074e-07 2.80918e-08 -2.07993e-08
-1.45094e-07 3.12474e-08 -2.3804e-08
-1.44499e-07 2.97639e-08 -2.22105e-08
1.78096e-07 3.66064e-08 -6.81109e-09
1.73309e-07 3.62693e-08 -5.56414e-09
1.47923e-08 8.20423e-08 4.95491e-09
1.32418e-08 -3.89939e-08 -7.85586e-09
1.40059e-08 -3.7204e-08 -8.68508e-09
-6.13629e-08 -3.73981e-08 -3.77151e-09
-5.55308e-08 -3.57793e-08 -2.52408e-09
3.86329e-09 8.56324e-08 5.96743e-09
-2.78724e-08 -5.21838e-08 -1.55922e-09
-2.86102e-08 -5.38132e-08 -1.53979e-09
1.62613e-07 4.4437e-08 -2.70522e-08
1.44898e-07 5.32799e-08 -3.01197e-08
-1.77241e-08 9.0924e-08 -1.63291e-08
-6.70575e-08 1.67009e-08 -4.51641e-09
-2.33505e-08 8.7212e-08 -1.84835e-08
-6.07709e-08 5.68077e-08 9.53141e-09
-6.08514e-08 6.03078e-08 9.48148e-09
1.70819e-07 4.80074e-08 2.05968e-08
-5.61541e-08 -3.5829e-08 -2.39699e-09
1.68884e-07 4.70607e-08 2.00782e-08
1.50036e-07 5.00738e-08 -2.9871e-08
5.94476e-09 1.42282e-09 -6.04226e-10
4.36064e-08 9.13973e-08 4.37319e-09
-4.15148e-08 -3.7699e-08 -1.06995e-09
-4.00836e-08 -3.85771e-08 -1.6592e-09
1.50176e-07 4.54578e-08 -4.77963e-09
-3.15969e-08 -5.99791e-09 -2.00885e-09
1.45209e-07 4.45642e-08 -3.25146e-09
1.21453e-07 7.17122e-08 5.73787e-09
-9.47716e-09 1.47885e-08 -2.6127e-09
-9.57458e-09 9.4278e-09 -1.48329e-09
-7.72658e-08 3.41241e-08 -8.30369e-09
-7.69858e-08 3.05797e-08 -7.98507e-09
2.22778e-07 1.98984e-08 -1.40388e-08
-1.04913e-07 -2.83238e-08 -4.71864e-09
-1.05406e-07 -2.79187e-08 -4.95326e-09
2.2988e-07 1.68839e-08 -9.08955e-09
2.32312e-07 1.55537e-08 -1.0049e-08
-1.28005e-07 -1.3243e-08 -5.9309e-09
-1.31516e-07 -1.33431e-08 -6.80331e-09
6.62738e-08 7.28803e-08 -9.38266e-10
5.49487e-08 7.56576e-08 -1.63067e-09
5.38046e-08 7.44216e-08 6.02061e-10
1.4878e-07 4.8716e-08 2.43701e-09
-9.27222e-09 9.05416e-08 5.62146e-09
1.47189e-07 4.98543e-08 4.25039e-09
1.46808e-07 5.03811e-08 3.6383e-09
-5.845e-08 7.97501e-08 -2.73653e-08
-6.78357e-08 7.75636e-08 -2.85056e-08
-7.92109e-08 7.62721e-08 -2.61237e-08
-1.1321e-07 4.25762e-08 1.93941e-08
-1.12991e-07 4.15467e-08 1.61991e-08
-8.59522e-08 7.00388e-08 -2.5685e-08
-8.5676e-08 7.20901e-08 -2.55731e-08
1.60815e-07 4.4158e-08 4.49968e-09
1.6293e-07 4.33308e-08 2.69085e-09
1.29991e-07 6.51679e-08 2.12751e-08
1.37399e-07 6.22364e-08 1.92603e-08
1.11705e-07 7.27679e-08 1.40558e-08
1.2811e-07 6.33926e-08 1.89754e-08
1.98619e-09 1.04915e-07 2.14764e-09
1.09691e-07 6.52938e-08 -1.7562e-09
1.17453e-08 7.84579e-08 6.27623e-09
1.47729e-09 8.01056e-08 8.5269e-09
-6.87472e-08 7.46362e-08 -2.97731e-08
3.67395e-10 7.64364e-08 7.8055e-09
9.50679e-08 -3.91046e-08 2.78381e-08
-1.23643e-07 -2.04942e-08 -8.87969e-09
-1.22121e-07 -2.20412e-08 -9.81147e-09
1.40372e-07 5.80136e-08 7.69413e-09
1.42638e-07 5.80735e-08 8.19122e-09
9.31789e-08 -4.32079e-08 3.02204e-08
-7.38801e-09 7.68493e-08 1.00689e-08
-2.24311e-09 8.20703e-08 7.76634e-09
1.16067e-07 6.54488e-08 1.54515e-09
-7.86326e-08 -4.21764e-08 -3.13834e-09
6.27998e-08 9.65993e-08 -8.31213e-11
1.62985e-07 5.00774e-08 1.60241e-08
-1.00114e-07 5.46397e-08 -1.62447e-08
4.24466e-08 9.91671e-08 -5.06886e-10
5.17618e-08 1.01316e-07 -1.12587e-09
-5.27593e-08 8.3941e-08 -1.8192e-08
2.35874e-08 -6.03225e-08 8.90992e-09
2.02572e-08 -6.33582e-08 7.62874e-09
-3.6533e-08 6.07546e-08 1.78304e-09
3.20752e-08 -5.98238e-08 8.97254e-09
2.29933e-07 2.01635e-08 -3.62276e-08
2.35905e-07 2.30401e-08 -4.09047e-08
-6.47502e-08 -4.10405e-08 -6.7993e-09
-6.44669e-08 -4.09008e-08 -7.61834e-09
2.35008e-07 2.33665e-08 -4.72292e-08
-8.99826e-08 6.06398e-08 -2.20243e-08
-8.80082e-08 6.47072e-08 -2.31055e-08
-4.3778e-08 9.30155e-08 -1.74619e-08
8.13802e-08 7.44704e-08 -5.57207e-12
-5.18758e-08 8.58829e-08 -1.86968e-08
-5.18552e-08 8.93293e-08 -1.76573e-08
-1.27875e-07 -1.10682e-08 -4.97092e-09
-1.25029e-07 -1.27099e-08 -4.64205e-09
-1.26247e-07 -1.24e-08 -3.85167e-09
-3.60445e-08 -8.71535e-09 1.40477e-09
2.90974e-08 9.1024e-08 2.69946e-09
-4.48736e-08 7.55662e-08 1.30065e-08
3.5563e-08 8.92691e-08 3.69468e-10
1.68174e-07 4.82334e-08 1.41328e-08
-1.2638e-07 -1.85175e-08 -6.16868e-09
-1.24751e-07 -1.90371e-08 -6.58922e-09
-4.97572e-08 8.8267e-08 -2.20416e-08
-5.97272e-08 8.52888e-08 -2.35201e-08
-5.15917e-09 7.78507e-08 1.04572e-08
-1.78563e-08 7.56557e-08 1.44163e-08
-1.89817e-08 7.84554e-08 1.31302e-08
-4.4289e-08 -2.56154e-08 6.15413e-10
-4.23953e-08 -2.83291e-08 1.017e-09
1.97733e-07 3.29367e-08 -5.29179e-08
1.97761e-07 3.378e-08 -5.00506e-08
-2.0352e-08 7.55698e-08 1.48101e-08
-1.82731e-08 7.60582e-08 1.12507e-08
-1.55355e-07 1.72706e-08 -1.53679e-08
1.16605e-07 7.08657e-08 2.52436e-08
-1.57507e-07 1.59635e-08 -1.36834e-08
3.78902e-08 9.52941e-08 1.35645e-08
4.21202e-08 9.82695e-08 1.78791e-08
-1.56896e-07 1.56388e-08 -1.21196e-08
1.06616e-08 7.65105e-08 5.26415e-09
6.20168e-09 7.83807e-08 7.47535e-09
1.15155e-07 7.30196e-08 7.64153e-09
2.20027e-07 2.92709e-08 2.64655e-08
1.39362e-07 5.98209e-08 9.30739e-09
1.08889e-07 7.52596e-08 9.27702e-09
-4.68855e-09 7.57824e-08 1.10224e-08
1.82466e-07 -2.17894e-08 -1.1939e-09
1.83962e-07 -2.08316e-08 1.36813e-09
1.65139e-08 -4.56451e-08 -7.39549e-09
1.93011e-08 -4.22934e-08 -7.62603e-09
1.17224e-07 7.33427e-08 8.3999e-09
1.07668e-07 5.94225e-08 -2.76414e-09
-1.07348e-08 8.58508e-08 8.43014e-09
1.0152e-07 6.3292e-08 -4.33586e-09
2.32856e-07 -4.4288e-09 4.36245e-08
2.07359e-07 -1.3264e-08 9.18123e-09
1.19865e-07 6.89902e-08 1.73059e-08
-5.87868e-08 -1.33609e-09 -2.63632e-09
1.12389e-07 6.88355e-08 1.46997e-08
1.09969e-07 7.2628e-08 1.15975e-08
-1.56539e-07 1.33062e-08 -1.3918e-08
-1.55251e-07 1.51861e-08 -1.58181e-08
-1.31555e-07 3.52143e-08 2.04845e-08
-1.33661e-07 3.1624e-08 1.75368e-08
-1.53975e-07 1.60149e-08 -1.61663e-08
-1.51597e-07 2.31353e-08 -1.18309e-08
-1.51775e-07 2.25127e-08 -1.07463e-08
-7.63376e-08 6.05293e-08 1.57936e-08
-7.66385e-08 5.9355e-08 1.27607e-08
1.69757e-07 4.67878e-08 1.57741e-08
8.0881e-08 8.41403e-08 4.18502e-08
6.15243e-08 8.61185e-08 3.87494e-08
7.86395e-08 -3.45789e-08 1.69202e-08
7.90639e-08 -3.28437e-08 1.64076e-08
-5.57612e-08 -5.60263e-08 -1.02531e-09
-5.94427e-08 -5.29442e-08 -1.57083e-09
2.62564e-08 1.04809e-07 1.07591e-10
-7.87458e-08 6.87764e-08 7.20202e-09
7.52141e-08 8.99214e-08 5.88475e-09
-9.00581e-08 6.08911e-08 -1.94717e-08
-8.38784e-08 -2.65838e-08 1.00081e-10
-8.29682e-08 -2.60902e-08 -7.39481e-10
-9.52768e-08 5.66741e-08 -1.88952e-08
2.12655e-07 3.38518e-08 3.66527e-08
-7.99847e-08 6.5107e-08 8.08913e-09
8.49488e-08 8.82114e-08 5.90009e-09
1.49896e-07 5.58916e-08 1.18427e-08
1.51477e-07 5.51252e-08 1.41145e-08
-1.08343e-07 5.47387e-09 -7.50701e-09
-1.06835e-07 7.82592e-09 -8.13492e-09
-1.42152e-07 2.65476e-08 1.57124e-10
-1.44672e-07 2.69599e-08 3.44367e-09
1.5577e-07 5.25762e-08 1.18679e-08
3.76151e-08 -6.14702e-08 5.0811e-09
1.64466e-07 3.84871e-08 -1.00286e-08
1.75958e-07 3.70341e-08 -7.99615e-09
2.37581e-07 1.62047e-08 2.69194e-09
1.30605e-07 6.37265e-08 5.79984e-09
-2.29519e-08 7.49226e-08 1.31854e-08
-1.07336e-07 1.43079e-08 -1.03494e-08
-1.06298e-07 1.25097e-08 -9.61563e-09
2.30962e-07 1.85982e-08 3.30432e-09
1.30623e-07 6.09423e-08 4.11712e-09
1.32769e-07 5.84506e-08 3.98747e-09
2.3352e-07 1.81565e-08 -1.01198e-09
4.84594e-08 1.56408e-08 -9.90408e-09
-7.45212e-08 -3.63083e-08 -8.41179e-10
-6.92646e-08 -3.57112e-08 -1.00484e-09
1.0257e-07 7.36681e-08 1.32665e-08
1.02854e-07 7.37253e-08 1.52411e-08
9.98975e-08 7.5554e-08 1.28732e-08
8.95943e-08 7.98502e-08 1.1399e-08
8.39304e-08 8.37309e-08 1.12962e-08
-7.45174e-08 7.00531e-08 -2.88447e-08
-8.22903e-08 6.48854e-08 -2.65584e-08
-8.27921e-08 -4.22881e-08 -5.26879e-09
-8.0951e-08 -4.32899e-08 -4.09794e-09
1.1317e-07 7.03683e-08 1.33405e-08
-9.51257e-08 5.81288e-08 -1.64761e-08
2.25529e-07 1.89249e-08 -1.80136e-08
2.23403e-07 1.91094e-08 -1.48808e-08
6.20265e-09 2.83288e-08 8.66514e-09
-6.28841e-09 9.53971e-08 -1.09655e-08
-3.03961e-08 7.5064e-08 1.47433e-08
-4.21296e-08 8.05039e-08 1.34541e-08
-5.22159e-08 -1.80749e-08 -1.50041e-09
-9.31685e-09 9.46625e-08 -1.37524e-08
-4.39922e-08 -4.85538e-08 -6.15797e-09
-4.30325e-08 -4.84306e-08 -4.82605e-09
7.46921e-09 9.36997e-08 -8.90053e-09
1.36643e-07 6.25818e-08 1.02971e-08
-3.07126e-08 -4.97723e-08 -7.06516e-10
-3.11826e-08 -5.12521e-08 -1.54605e-09
1.34266e-07 6.28109e-08 8.66644e-09
6.21774e-09 1.01401e-07 -5.60674e-09
1.48179e-07 5.60787e-08 1.07876e-08
2.25232e-07 1.88039e-08 -1.71819e-08
-1.49641e-07 4.90948e-10 -9.14796e-09
-1.47962e-07 7.8244e-10 -9.24006e-09
-7.60376e-08 -1.75525e-08 -4.30738e-10
-6.9494e-08 -1.732e-08 -6.95774e-10
2.14261e-07 2.31062e-08 -2.18012e-08
2.92839e-08 1.04984e-07 -1.48644e-09
4.34083e-08 7.57859e-08 -2.01736e-09
3.69906e-08 1.01715e-07 2.85594e-10
9.16943e-08 8.70838e-08 2.81652e-08
8.81612e-08 9.0017e-08 2.64967e-08
8.5331e-08 -3.53996e-08 2.30338e-08
9.10367e-08 -3.44226e-08 2.24764e-08
8.6056e-08 8.45432e-08 2.43449e-08
1.09446e-07 7.44842e-08 -2.44334e-11
3.21254e-08 7.45367e-08 -7.09288e-10
1.05176e-07 7.82033e-08 2.13126e-09
8.60635e-08 -3.39009e-08 2.09919e-08
9.57103e-08 -3.5741e-08 2.37815e-08
8.40713e-08 7.44965e-08 -2.08589e-09
7.49165e-08 7.24804e-08 -7.91959e-10
6.71515e-08 7.73695e-08 -2.61937e-09
-1.36493e-07 -1.21498e-08 -6.59534e-09
-1.37274e-07 -1.24093e-08 -6.13586e-09
1.34895e-07 -3.18143e-08 3.01873e-08
1.28822e-07 -3.25239e-08 2.90779e-08
4.23447e-08 9.68147e-08 1.57665e-08
5.59851e-08 9.6892e-08 1.85897e-08
6.38699e-08 7.86587e-08 -7.06354e-10
-1.11444e-07 -2.49208e-08 -5.37389e-09
-3.50114e-08 7.30881e-08 1.54971e-08
-4.51101e-08 7.08344e-08 1.52236e-08
-4.50536e-08 6.9568e-08 1.72429e-08
3.36594e-07 -9.85023e-09 6.06897e-08
3.25008e-07 -9.72085e-09 5.00944e-08
-9.45243e-08 5.74358e-08 -2.76352e-08
-9.46329e-08 5.60013e-08 -2.48914e-08
-1.18881e-07 2.89448e-08 1.4649e-08
-1.17203e-07 2.90628e-08 1.39451e-08
1.07731e-07 7.93743e-08 5.54786e-09
1.10939e-07 7.71542e-08 7.69819e-09
-1.49278e-07 2.47768e-08 -1.53667e-08
1.16982e-07 7.38336e-08 5.9008e-09
1.84261e-08 8.58626e-08 -1.54339e-08
1.41094e-08 -5.53972e-08 1.12019e-08
6.35417e-09 -5.66353e-08 1.01813e-08
4.65569e-09 -5.63208e-08 8.38442e-09