# vtk DataFile Version 2.0
S, Created by Mohamad Ibrahim Cheikh
ASCII
DATASET UNSTRUCTURED_GRID
POINTS 9548 double
-207.177 48.1001 -13.244
-249.507 4.3645 10.1574
-210.54 45.7935 -14.8307
-108.05 -45.2249 -65.3403
-111.89 -44.3091 -65.1762
-230.091 -25.2024 -25.043
-226.937 -27.8001 -25.8057
-249.896 -4.83769 8.66237
-249.018 -2.95216 11.9739
-250.516 4.09825 6.60831
-218.365 -35.5698 -25.3158
-203.194 24.6048 -45.6477
98.7025 58.7606 -55.6637
102.677 57.8761 -55.7103
-221.906 -33.1883 -24.7747
-113.777 63.3325 46.3477
37.2403 -75.2119 -43.788
33.8639 -76.8684 -41.1685
-110.392 65.2083 44.7203
-69.0044 -59.7271 -59.9476
-71.7002 -61.6229 -57.5953
53.178 -24.1848 -82.5401
-227.855 29.8721 -22.2555
-219.04 -39.4217 17.7741
45.8582 -79.5512 -34.0315
19.2359 -9.11863 87.2671
49.6047 -78.8643 -34.9737
-188.919 -6.32167 -57.7447
-190.468 -2.9363 -57.3919
-100.727 -38.9468 70.6044
-104.702 -37.5465 70.6548
-182.428 -34.2256 49.9813
40.534 79.8448 -34.1709
8.46812 5.20434 -87.796
12.1816 2.79734 -87.8522
41.0205 81.0554 -31.1128
-179.266 -32.8726 52.2393
-220.802 -39.5282 14.5817
-228.602 23.8775 27.8532
-167.596 65.3367 6.02082
-171.872 63.9328 6.32388
-225.494 24.3114 30.4572
-222.289 31.6233 26.3511
-65.4355 80.7479 -26.4491
-65.1147 79.5646 -29.9062
-3.11156 4.88233 -87.8577
-183.816 51.316 31.2081
-171.119 10.7867 -63.5821
1.37341 -85.908 19.0677
2.48293 -86.6775 15.1744
-169.941 14.3605 -63.2611
-193.354 -45.5519 -33.0438
-72.6607 -63.9058 -54.8969
-71.03 -66.1768 -52.4113
-79.3842 -65.7632 -51.4554
-77.5732 -63.7572 -54.2427
-196.707 -44.9521 -31.4013
-174.092 63.5026 -0.899164
-169.744 64.9219 -1.24091
-89.2791 82.1871 3.66286
-93.4045 81.6151 3.85301
-164.766 -59.4397 -29.7857
-160.858 -61.2898 -28.6294
83.5264 -55.512 -61.7111
87.6867 -55.7605 -60.7734
-198.854 3.4503 53.7663
-200.404 -0.643037 53.1655
-225.254 -11.3547 -37.4569
-248.419 -0.474762 -13.7245
210.703 46.2844 12.8974
208.296 46.5214 16.3656
-32.848 66.8855 -56.0199
-30.0567 68.8297 -53.8133
205.092 48.1874 16.4996
-187.869 55.9098 -17.2322
22.9024 13.9645 -86.5146
197.301 45.8262 -29.6316
195.361 48.3144 -27.1483
201.027 44.3075 -28.8654
-2.75853 -85.4694 20.9296
-2.78411 -84.3104 25.1952
-6.58506 -85.9227 18.8676
-228.755 -4.07811 -36.3421
41.6402 6.6231 -86.5324
-230.717 -6.13722 -34.4868
-208.662 -29.6162 -39.1951
-204.707 -32.0477 -39.8308
-54.6943 66.3466 -54.5516
-57.6056 64.5704 -56.2884
-231.198 -9.97477 -33.1705
-229.798 35.6232 3.13088
-100.461 46.8201 -65.6982
-96.4943 48.405 -65.2762
-147.337 -71.1243 5.25468
-116.577 44.8978 -63.7521
-145.303 -71.268 8.94549
-226.117 38.2314 4.75457
-222.638 40.8789 2.08323
227.16 -36.4191 10.0025
229.064 -34.1213 12.4803
-184.431 22.5564 55.4144
-187.955 19.7285 55.0424
-91.0354 38.0753 72.6611
-87.6149 35.5698 74.4243
-48.1909 -73.4964 -45.3647
-212.572 19.8403 42.6391
239.237 -22.2209 -15.5881
239.172 -24.3316 -12.1871
-99.7335 -38.6768 -70.9247
-101.971 -41.6636 -68.8121
-202.612 47.2 22.1404
-44.2105 -73.4043 -46.0055
-100.155 -46.1401 -66.2343
-95.3383 -46.2305 -67.0367
-42.167 -71.4777 -49.1655
-232.009 -17.2598 -29.2556
-173.221 39.1472 -50.3778
-168.437 47.0693 -45.3323
-122.402 -72.9066 24.3794
-118.877 -74.1504 22.7062
-137.893 -60.6935 41.6216
-140.666 -58.3015 43.8453
-166.76 44.119 -48.9166
-169.418 41.1846 -50.3366
-51.3271 -17.6376 -84.323
-54.9318 -19.4033 -83.6545
-209.363 42.7033 23.5366
-202.246 20.59 -48.0858
-199.247 23.3069 -48.3773
-103.808 -75.8267 -25.9805
-101.277 -75.2208 -28.811
-207.241 41.6585 27.3921
-216.66 -35.0495 27.7208
-207.296 -43.4146 24.4569
-210.224 -40.5013 26.3234
-65.364 -83.329 16.6492
-68.0318 -83.6208 13.5985
-72.5493 -83.1074 13.884
-192.518 54.1236 -16.643
-218.367 5.44818 -43.3166
-218.329 1.15615 -43.6661
-195.745 51.9127 -18.9207
-239.855 -8.28632 -25.1362
-186.22 -45.9868 -37.1968
-182.263 -46.2898 -39.168
-111.274 -22.5949 75.6145
-109.077 -25.8593 74.9575
-68.8549 -45.0335 -71.6627
-64.8838 -45.9345 -71.5444
-103.645 48.7182 -63.6816
-101.676 51.195 -62.1079
-241.916 -4.0012 -23.7263
192.34 -29.391 48.4858
193.039 -25.7132 50.2054
196.534 -23.4555 49.6476
-149.105 -53.267 -46.741
-150.84 -50.6807 -48.8858
-171.745 -56.8963 29.9259
-175.857 -56.564 27.5364
-219.382 -23.338 -36.1519
-218.85 -19.9766 -38.4853
-161.278 -50.1517 -45.2143
-157.53 -49.1971 -47.8064
-196.042 -7.392 -54.6265
-194.233 -10.4963 -54.9086
-162.872 -52.9555 41.1335
-166.358 -53.0701 39.2339
-43.5323 82.8172 -25.5597
-39.92 83.6527 -23.4758
-200.605 43.1014 30.9743
-196.592 45.2481 31.0625
-34.904 84.0325 -23.0952
-11.9851 86.5945 -15.0931
-215.61 44.1914 -9.98005
-249.518 -2.73299 -10.6803
-18.4758 85.676 -19.0218
-15.8616 86.3143 -16.2187
-244.881 2.57712 -19.8901
-207.416 25.6796 42.6313
-204.612 13.9822 -49.2223
-201.93 17.1474 -49.576
-202.952 10.5374 50.8931
-202.369 14.0782 50.3178
-246.369 -0.854008 -17.6639
-197.474 36.4596 40.502
-247.25 -11.7892 10.9767
-245.735 -16.3413 9.16072
-205.614 -6.06328 50.3111
-251.322 -0.798349 -3.21319
-70.3838 63.7952 -55.3866
-66.5858 62.7424 -57.1364
-251.024 -5.0208 -2.01586
-76.5063 80.289 -24.1053
-123.427 -64.1187 42.0437
-119.508 -63.7318 43.9737
-73.0543 79.7361 -27.0694
-203.788 -2.68643 51.5005
66.8527 6.35202 -84.5959
-65.2635 -33.0055 -78.3145
-64.679 -26.0046 -80.9666
-63.1488 -30.1713 -79.6585
-218.207 -12.2552 -42.0042
-152.971 69.5328 -6.65682
172.067 63.9283 5.68974
171.464 63.6936 9.36367
-149.028 70.574 -6.65005
-217.225 -7.86328 -43.647
-220.732 -5.68509 -41.7919
-150.297 -68.8708 15.3361
-146.455 -70.2365 13.5941
-238.755 -26.9322 -6.29401
-242.036 -22.8083 -7.18573
-237.88 7.88836 -27.4557
-235.526 5.67539 -30.3362
-5.33324 87.9664 1.55864
-9.54052 87.9228 1.559
-232.282 8.19594 -32.7278
-203.353 36.0731 37.1475
-190.54 52.1484 -24.0761
-186.953 54.0335 -23.3508
-201.488 34.4198 39.8613
-206.519 29.1249 40.9154
-203.484 31.3134 41.16
27.372 14.3204 -86.2972
-122.908 73.2781 -22.9097
-25.7072 85.3347 19.5212
-21.5808 85.3288 20.149
-220.416 -41.0273 10.6164
-217.203 -43.2911 9.69361
-52.9361 63.5795 -57.9532
-2.62509 -7.51172 87.674
-55.8517 62.1765 -59.1284
-119.105 73.8334 -23.5763
-203.482 -9.23438 50.887
134.871 -73.5191 10.5782
132.587 -73.5987 13.2281
-207.057 49.1121 -9.11452
-84.5932 -0.788491 82.869
-98.974 -69.521 41.3706
-102.449 -69.184 40.8968
-134.043 61.72 -41.6518
-130.441 61.3369 -43.5736
-222.39 -40.4388 7.32389
-229.456 -16.484 -32.0361
-147.066 67.2004 -24.0858
-142.438 68.4775 -23.8931
-225.021 -20.383 -33.6055
-227.844 -20.0904 -31.3791
-181.564 60.7522 -4.14406
-177.257 62.2917 -4.11849
60.3209 73.8986 -42.8663
-195.091 -0.0893003 -55.5356
-171.072 59.2334 -25.5423
-167.48 60.5247 -25.4291
-220.736 30.4199 29.2109
-222.517 27.0619 30.8166
-160.328 11.1077 -66.8845
-161.952 6.91106 -66.9708
-89.1878 74.4918 -34.9443
-92.3967 75.447 -31.7261
-201.305 -37.315 -37.2862
-204.952 -35.2975 -36.8152
-53.2162 83.9995 -18.4761
-49.8285 83.7722 -20.5483
-193.806 -3.77801 -55.9565
57.3548 73.1296 -44.6466
-85.4908 70.6174 43.1553
-84.6959 72.8379 39.5018
-209.904 48.0349 -6.5125
54.3609 74.1485 -43.4075
-96.1581 -77.735 -23.8585
-94.3772 -75.4246 -31.0585
-96.7749 -76.3388 -27.7449
-106.101 71.789 34.8151
-105.993 69.9393 38.4324
-216.526 3.28241 44.6456
118.131 19.4107 -75.2244
114.694 22.182 -75.1093
75.9422 -24.0184 80.3805
75.1976 -20.6343 81.3998
-218.897 -0.563783 43.328
146.658 -12.4829 70.3908
142.614 -12.1367 71.4607
-56.8179 62.894 58.2503
-63.3465 58.0608 62.3029
-180.256 -13.702 -59.8183
10.6147 -17.3172 -86.1993
-178.816 -17.1536 -59.4561
-47.3906 -19.2778 84.2461
-51.3142 -18.4635 84.147
-125.269 69.7411 -30.9671
70.6967 -19.6572 82.1321
-127.975 70.2195 -28.4275
-59.8376 60.0493 60.8253
23.5134 24.0384 84.2524
-192.395 15.1945 -54.6009
174.04 -22.4414 -59.4304
176.818 -20.6225 -59.0845
-144.541 63.5794 33.8204
40.2037 2.77873 -86.8239
-143.632 61.5632 37.7915
-213.288 46.1543 -6.64905
12.2615 16.6001 86.3136
16.6952 15.9697 86.3414
-12.1233 -23.118 -84.8031
-7.98308 -23.7187 -84.6972
-39.9165 81.2887 30.6769
153.16 -69.4481 -6.99774
151.652 -69.4535 -10.2242
-36.4819 82.2084 28.6851
-31.9247 82.8007 27.6271
40.9046 -72.3331 48.032
41.0352 -74.6543 44.3235
-204.024 24.4629 45.269
-205.816 20.4675 46.248
-203.545 18.7771 48.1567
-166.91 62.9662 19.1959
-235.229 -3.55428 30.935
-170.937 61.6606 19.0952
-172.739 61.9789 15.7935
-153.889 -33.4129 -61.059
-153.943 -36.8233 -59.0476
-90.3856 -35.4699 -74.0654
-153.347 -62.6259 30.7082
-157.075 -62.3426 28.9266
-88.0877 -38.597 -72.8305
-84.2601 -37.1803 -74.1107
-151.633 67.2458 20.1741
-147.349 68.2813 20.5789
-152.922 53.4989 -44.931
-155.806 56.0954 -40.3144
-191.17 44.2952 -36.1604
-156.741 53.266 -43.5761
-248.734 1.82317 12.8857
-203.295 43.8295 27.6235
-189.667 0.00796259 57.7906
-185.056 -4.72151 59.4052
-156.915 -38.9583 -56.672
-189.489 -4.65009 57.6748
79.4037 62.1647 55.7462
82.0923 -76.4938 32.6745
86.1747 -75.2748 34.1836
-189.949 57.6758 0.335921
-188.048 58.3787 -2.55206
83.1512 60.5341 56.8605
-209.195 -7.64595 48.2462
-212.222 -3.96061 47.0561
-206.282 45.5945 21.3413
208.875 -47.7762 -10.9519
-242.198 20.7438 11.4873
-149.578 67.7972 -20.2071
-205.13 -48.9876 -13.8751
-244.372 14.3385 15.0707
-244.539 16.9247 11.6743
-230.033 -22.383 -27.6506
233.409 14.5443 29.3677
235.658 11.647 28.4468
-24.293 1.75811 -87.5709
233.724 18.3839 26.7964
-1.43556 78.711 39.3489
1.48503 77.6035 41.4901
112.641 -34.265 70.8273
115.558 -36.0015 69.3757
5.55991 78.6943 39.3372
-204.795 -44.8715 -24.4065
-207.976 -42.4639 -25.4007
-108.261 -19.2789 -77.0543
-215.499 30.0699 33.9725
-105.797 -23.108 -76.4176
-101.987 -21.1928 -77.5979
63.908 -77.2031 -35.8279
72.1957 -76.4239 -35.5703
68.2275 -75.9587 -37.4747
27.683 -0.15293 87.4651
-234.785 9.62825 30.0408
-224.282 -20.96 33.8546
-231.627 12.4791 31.9331
-146.821 69.4179 -16.9116
96.8609 -81.0343 -5.36625
99.3034 -80.8273 -1.90704
-128.487 -25.2801 -71.3003
-128.251 -28.9013 -69.9638
-192.589 -7.93308 56.0362
-188.423 -15.022 56.3174
-155.913 -14.7133 67.4639
46.5864 -8.18043 86.0893
[...]
POINT_DATA 9548
VECTORS F double
1.02759e-07 5.56794e-08 5.41557e-09
1.32857e-08 8.78332e-08 2.21636e-09
9.92832e-08 5.79673e-08 6.42842e-09
-6.94418e-08 5.47174e-08 -2.38134e-08
-6.94483e-08 5.70327e-08 -2.41761e-08
-4.69462e-08 6.52296e-08 -1.28367e-08
-4.87316e-08 6.15802e-08 -1.38721e-08
-1.2491e-08 8.50077e-08 3.35859e-09
-6.77254e-09 8.50609e-08 3.7292e-09
1.21116e-08 8.83839e-08 1.4033e-09
-5.83106e-08 5.51595e-08 -1.59232e-08
5.85484e-08 6.69158e-08 4.16089e-09
7.61382e-08 -3.60275e-08 -2.15028e-08
7.66684e-08 -3.55019e-08 -1.95822e-08
-5.74808e-08 5.7765e-08 -1.43487e-08
1.29478e-07 3.7877e-08 -1.28431e-08
-1.13513e-07 -4.51675e-09 -4.06122e-09
-1.15619e-07 -3.55702e-09 -5.00218e-09
1.35396e-07 3.36854e-08 -8.19871e-09
-1.00362e-07 3.6551e-08 -2.22728e-08
-1.00458e-07 3.50731e-08 -2.22147e-08
-5.70223e-08 -9.77301e-09 -1.63427e-09
7.09617e-08 7.06116e-08 5.82925e-09
-6.57938e-08 4.91122e-08 9.65968e-09
-1.1615e-07 -6.66927e-09 -3.57233e-09
-3.65556e-08 1.37003e-08 2.41809e-09
-1.15496e-07 -7.46226e-09 -3.22849e-09
1.46308e-09 7.02827e-08 -8.28037e-09
5.50294e-09 7.26476e-08 -5.95281e-09
-5.26418e-08 5.90892e-08 2.34002e-08
-5.27733e-08 6.09683e-08 2.28245e-08
-3.87308e-08 5.55569e-08 2.07363e-08
1.91251e-07 1.07728e-08 5.29474e-08
-2.42501e-08 2.66078e-08 1.29089e-09
-2.70426e-08 2.13249e-08 2.19935e-10
2.3024e-07 4.79125e-09 4.96473e-08
-3.77637e-08 5.77527e-08 2.04761e-08
-6.65204e-08 4.844e-08 7.99037e-09
5.91222e-08 6.86079e-08 5.93337e-10
1.29075e-07 4.00723e-08 5.02909e-09
1.27409e-07 4.14977e-08 4.41759e-09
6.04444e-08 6.79757e-08 5.29563e-10
7.3998e-08 6.4335e-08 -7.82722e-10
1.80807e-07 2.57306e-08 2.37888e-08
1.77995e-07 2.63754e-08 2.27231e-08
-2.36134e-08 3.68544e-08 2.1504e-09
1.04503e-07 4.77556e-08 -3.1667e-09
2.87734e-08 7.16504e-08 2.67468e-09
-1.28212e-07 1.27286e-10 1.70418e-09
-1.29147e-07 -3.03247e-10 8.55212e-10
3.86202e-08 6.98914e-08 3.16374e-09
-6.7213e-08 4.94411e-08 -2.00052e-08
-1.03309e-07 3.40867e-08 -2.29396e-08
-1.08341e-07 3.10166e-08 -2.11866e-08
-1.04909e-07 3.35163e-08 -2.30203e-08
-1.03845e-07 3.47927e-08 -2.27134e-08
-6.7725e-08 4.9079e-08 -1.83174e-08
1.27171e-07 4.2764e-08 5.66614e-09
1.28885e-07 4.13818e-08 6.53945e-09
1.76527e-07 2.32379e-08 5.36899e-09
1.7484e-07 2.42649e-08 4.93221e-09
-8.48337e-08 3.80325e-08 -1.84431e-08
-8.55902e-08 3.53931e-08 -1.68929e-08
-8.55968e-08 -1.66537e-08 7.96525e-10
-8.49095e-08 -1.64571e-08 1.00493e-10
2.06857e-08 6.43239e-08 5.23892e-09
1.15696e-08 6.62157e-08 6.14025e-09
-1.70201e-08 7.3461e-08 -9.73797e-09
-1.58098e-10 8.6884e-08 -2.65623e-09
6.08492e-08 -3.61446e-08 8.00447e-09
6.16387e-08 -3.70369e-08 9.2337e-09
1.50201e-07 4.27469e-08 4.02554e-08
1.59769e-07 3.72527e-08 3.67225e-08
6.17809e-08 -3.56092e-08 9.97787e-09
1.12949e-07 4.90679e-08 8.44047e-09
-1.07179e-08 1.26566e-08 1.69553e-09
5.68144e-08 -3.52345e-08 -8.17629e-09
6.07787e-08 -3.34374e-08 -5.95977e-09
5.69415e-08 -3.59264e-08 -6.59555e-09
-1.28478e-07 1.16329e-09 2.67738e-09
-1.27017e-07 1.49928e-09 3.29878e-09
-1.29188e-07 1.70824e-09 2.25906e-09
-2.60534e-09 7.69177e-08 -6.6237e-09
-1.83414e-08 -4.85462e-09 -1.45216e-09
-6.99395e-09 7.69751e-08 -7.97011e-09
-4.56304e-08 6.20898e-08 -1.71746e-08
-4.64097e-08 5.91717e-08 -1.84073e-08
1.41392e-07 4.22226e-08 3.39959e-08
1.36789e-07 4.518e-08 3.46886e-08
-1.68703e-08 7.64561e-08 -8.59534e-09
8.47326e-08 6.66673e-08 2.87112e-09
9.75758e-08 6.14055e-08 2.54936e-08
9.82643e-08 6.21674e-08 2.83156e-08
-1.0063e-07 2.57694e-08 3.35409e-09
8.82069e-08 6.12709e-08 2.34029e-08
-1.03007e-07 2.65077e-08 6.34087e-09
8.85944e-08 6.4004e-08 1.19046e-09
9.30141e-08 6.18612e-08 3.13665e-09
-6.1103e-08 -4.75075e-08 -3.0815e-09
-5.77884e-08 -4.88813e-08 -3.78578e-09
5.46866e-08 5.87661e-08 -1.63722e-09
5.06906e-08 6.09079e-08 -6.38607e-10
8.28439e-08 5.71387e-08 -1.72339e-08
8.26555e-08 5.69491e-08 -1.53047e-08
-1.18729e-07 1.95301e-08 -1.61995e-08
4.91257e-08 6.5345e-08 -4.20869e-10
-4.12198e-08 -5.4534e-08 2.86151e-10
-4.53355e-08 -5.47884e-08 4.56849e-10
-6.28913e-08 5.86594e-08 -2.11609e-08
-6.57809e-08 5.78433e-08 -2.30879e-08
9.95386e-08 5.2536e-08 -4.76926e-10
-1.18098e-07 1.90436e-08 -1.64905e-08
-7.49157e-08 5.30477e-08 -2.30849e-08
-7.41973e-08 5.38579e-08 -2.42229e-08
-1.17191e-07 1.97346e-08 -1.63851e-08
-3.07313e-08 7.08138e-08 -1.194e-08
8.31338e-08 5.93813e-08 1.11467e-08
9.51384e-08 5.56417e-08 1.4495e-08
-1.05521e-07 2.71722e-08 1.63962e-08
-1.06443e-07 2.50619e-08 1.36163e-08
-8.19821e-08 3.89837e-08 2.35939e-08
-7.81394e-08 4.27058e-08 2.60943e-08
9.14665e-08 5.54614e-08 1.1846e-08
8.49287e-08 5.8697e-08 1.30289e-08
-4.36461e-08 6.19832e-08 -9.71222e-09
-4.37826e-08 5.97513e-08 -1.03392e-08
9.23767e-08 5.59824e-08 -9.68467e-10
5.0519e-08 7.03737e-08 4.11944e-09
5.43547e-08 6.75929e-08 5.15633e-09
-1.1411e-07 2.45165e-08 -1.5733e-08
-1.15583e-07 2.59494e-08 -1.80067e-08
9.08422e-08 5.50554e-08 4.15677e-10
-5.42178e-08 5.16714e-08 1.34515e-08
-6.44783e-08 4.44391e-08 1.1976e-08
-6.16085e-08 4.81946e-08 1.39142e-08
-1.27595e-07 1.39639e-08 8.5598e-09
-1.26676e-07 1.36993e-08 6.65111e-09
-1.27334e-07 1.48274e-08 7.29284e-09
1.11197e-07 5.04694e-08 6.64871e-09
2.14937e-08 7.44077e-08 -3.90721e-09
1.14495e-08 7.33074e-08 -5.06789e-09
1.07233e-07 5.24673e-08 8.13114e-09
-1.52757e-08 7.85115e-08 -8.03614e-09
-6.57791e-08 4.82432e-08 -1.93257e-08
-6.55397e-08 4.96175e-08 -2.13005e-08
-2.54991e-08 6.90188e-08 1.60299e-08
-2.88816e-08 6.54287e-08 1.74265e-08
-8.0971e-08 4.99423e-08 -2.18593e-08
-8.087e-08 4.72157e-08 -2.13353e-08
9.5811e-08 5.91851e-08 2.61867e-08
1.03621e-07 5.55619e-08 2.50306e-08
-6.53706e-09 8.33524e-08 -5.89676e-09
-4.696e-08 -4.38017e-08 -3.74426e-09
-4.11603e-08 -4.4643e-08 -3.48835e-09
-3.91807e-08 -4.66543e-08 -3.0524e-09
-7.67448e-08 4.69485e-08 -2.35305e-08
-7.19601e-08 5.01432e-08 -2.48001e-08
-7.78595e-08 3.87008e-08 1.88732e-08
-7.74643e-08 3.69607e-08 1.53549e-08
-3.83648e-08 6.6087e-08 -1.41598e-08
-2.98839e-08 6.66232e-08 -1.37768e-08
-6.82419e-08 4.75144e-08 -2.29015e-08
-6.89174e-08 5.09706e-08 -2.46502e-08
-1.73551e-09 7.10256e-08 -8.84863e-09
-4.7688e-09 6.83051e-08 -1.09919e-08
-6.89622e-08 4.43177e-08 2.36238e-08
-6.87883e-08 4.22261e-08 2.14078e-08
1.94532e-07 1.94672e-08 2.25131e-08
1.99923e-07 1.65896e-08 1.74926e-08
9.2809e-08 5.33685e-08 -6.73175e-10
9.46769e-08 5.19295e-08 -2.28393e-09
2.0111e-07 1.63232e-08 2.21808e-08
2.23008e-07 6.76111e-09 1.71097e-08
9.68711e-08 5.90603e-08 5.29278e-09
-6.59888e-09 8.68805e-08 -3.35866e-09
2.12851e-07 1.05808e-08 2.23452e-08
2.19837e-07 8.42387e-09 1.85085e-08
8.97323e-09 8.49775e-08 -2.51588e-09
5.95382e-08 6.14594e-08 -1.55604e-09
3.69125e-08 7.20528e-08 1.68152e-09
4.24042e-08 6.92377e-08 2.802e-09
3.1723e-08 6.42613e-08 2.1829e-09
4.04493e-08 6.35279e-08 2.14279e-09
-1.08502e-10 8.64854e-08 -3.99681e-09
7.92777e-08 5.61744e-08 -3.24453e-09
-2.87013e-08 7.89488e-08 5.64199e-09
-3.91555e-08 7.40878e-08 3.56783e-09
1.84237e-09 6.64408e-08 8.92905e-09
-2.22819e-09 8.85236e-08 -6.63733e-10
1.3403e-07 4.59293e-08 3.20495e-08
1.34817e-07 4.66364e-08 3.19766e-08
-1.40699e-08 8.64174e-08 -7.38002e-10
1.74118e-07 2.58633e-08 1.84865e-08
-9.01918e-08 3.61008e-08 2.26392e-08
-9.05574e-08 3.83205e-08 2.54074e-08
1.7643e-07 2.65109e-08 1.97961e-08
9.37747e-09 6.48012e-08 7.92329e-09
-1.2901e-08 -2.12781e-08 -2.84587e-09
-6.34691e-08 5.75485e-08 -1.77782e-08
-5.15604e-08 6.25753e-08 -1.50551e-08
-6.13668e-08 5.78346e-08 -1.59493e-08
-1.65353e-08 7.15379e-08 -1.03554e-08
1.39237e-07 3.81759e-08 7.03182e-09
7.89682e-08 -2.66929e-08 7.53501e-09
7.91766e-08 -2.72933e-08 8.14869e-09
1.40791e-07 3.7157e-08 8.04647e-09
-5.50962e-09 7.12499e-08 -9.47911e-09
-4.60893e-09 7.33679e-08 -7.0003e-09
-9.86283e-08 2.87942e-08 1.09692e-08
-9.93364e-08 2.6999e-08 8.47121e-09
-5.63246e-08 6.2349e-08 -5.20759e-09
-5.12765e-08 6.85564e-08 -6.15162e-09
2.22178e-08 8.20295e-08 1.89657e-13
1.83396e-08 7.95883e-08 -2.54313e-09
2.35069e-07 1.72162e-09 1.31349e-09
2.33624e-07 3.09375e-09 5.62883e-10
2.28815e-08 7.87494e-08 -1.61953e-10
7.99232e-08 5.78892e-08 -2.64955e-09
1.07476e-07 5.20106e-08 8.51858e-09
1.09598e-07 5.02631e-08 8.8787e-09
7.74545e-08 5.64075e-08 -7.7441e-10
6.73709e-08 6.04477e-08 -1.39584e-09
7.04552e-08 5.88769e-08 -2.14792e-09
-9.80171e-09 8.9354e-09 1.10211e-09
1.48314e-07 3.45015e-08 1.29389e-08
2.11216e-07 8.58913e-09 -3.49269e-09
2.13103e-07 7.63329e-09 -4.38173e-09
-7.03422e-08 4.78101e-08 5.96167e-09
-7.12014e-08 4.477e-08 4.61511e-09
1.35881e-07 4.54542e-08 3.46712e-08
-3.31701e-08 3.25459e-08 2.66687e-09
1.34729e-07 4.56814e-08 3.24556e-08
1.5042e-07 3.48813e-08 1.62015e-08
-2.31615e-09 6.25976e-08 1.02257e-08
-9.83727e-08 -2.26485e-08 -3.85062e-09
-9.90529e-08 -2.25402e-08 -3.85808e-09
1.05291e-07 5.5478e-08 6.08809e-09
6.4048e-09 7.83204e-08 1.54567e-09
-1.02437e-07 3.17016e-08 2.32691e-08
-1.02985e-07 3.14504e-08 2.16186e-08
1.23934e-07 4.43011e-08 1.68154e-08
1.25695e-07 4.51284e-08 1.74577e-08
-6.99601e-08 4.77962e-08 3.82289e-09
-2.90717e-08 7.22108e-08 -1.1663e-08
1.35708e-07 4.01375e-08 1.05366e-08
1.37091e-07 3.91612e-08 1.21778e-08
-3.39529e-08 6.89621e-08 -1.3994e-08
-3.51233e-08 6.79987e-08 -1.23126e-08
1.2242e-07 4.52049e-08 6.0357e-09
1.24175e-07 4.37094e-08 6.78205e-09
1.33949e-07 -2.09756e-08 -1.30834e-08
1.16681e-08 7.30844e-08 -5.13587e-09
1.19759e-07 4.6323e-08 9.22326e-09
1.2105e-07 4.54572e-08 1.05859e-08
7.22166e-08 6.33427e-08 8.47939e-10
6.46393e-08 6.54903e-08 -3.67582e-10
3.2257e-08 7.39466e-08 2.81378e-09
2.2013e-08 7.63919e-08 1.36594e-09
1.58736e-07 3.38024e-08 2.24562e-08
1.57643e-07 3.33296e-08 2.30513e-08
-5.488e-08 5.49873e-08 -1.87546e-08
-5.44748e-08 5.79041e-08 -1.83882e-08
1.94554e-07 1.86453e-08 1.61625e-08
1.97076e-07 1.87187e-08 1.78037e-08
4.57494e-09 6.97431e-08 -6.64882e-09
1.33726e-07 -2.09321e-08 -1.32537e-08
1.50904e-07 2.93799e-08 -1.14764e-08
1.57575e-07 2.85406e-08 -1.12624e-08
1.02884e-07 5.57048e-08 4.8822e-09
1.36044e-07 -1.78563e-08 -9.64322e-09
-1.18766e-07 2.25908e-08 -1.50012e-08
-1.16486e-07 2.5255e-08 -1.79948e-08
-1.15598e-07 2.38702e-08 -1.63128e-08
1.50645e-07 3.0839e-08 -7.38224e-09
1.46883e-07 3.06993e-08 -6.27123e-09
1.78466e-08 6.80269e-08 5.59561e-09
1.3882e-08 -3.78831e-08 -7.10631e-09
1.45435e-08 -3.63681e-08 -8.02159e-09
-5.17208e-08 -2.25786e-08 -7.64143e-10
-4.63709e-08 -2.11377e-08 -1.13599e-10
9.16333e-09 7.08414e-08 6.58972e-09
-2.56049e-08 -4.21285e-08 -9.39589e-10
-2.61847e-08 -4.3024e-08 -9.09262e-10
1.42428e-07 3.70311e-08 -2.29743e-08
1.27899e-07 4.43953e-08 -2.54514e-08
-1.04892e-08 7.18841e-08 -1.2596e-08
-5.45177e-08 1.77129e-08 -4.38042e-09
-1.49728e-08 6.89723e-08 -1.4386e-08
-4.00417e-08 5.87152e-08 1.0678e-08
-4.01611e-08 6.13747e-08 1.04684e-08
1.42286e-07 3.76872e-08 1.44071e-08
-4.66882e-08 -2.02301e-08 7.83906e-11
1.40667e-07 3.70558e-08 1.40029e-08
1.32581e-07 4.15911e-08 -2.5092e-08
1.38692e-08 1.875e-08 -5.82349e-09
3.80449e-08 7.23981e-08 3.73435e-09
-3.60318e-08 -3.50152e-08 3.03386e-10
-3.47669e-08 -3.58378e-08 -2.29602e-10
1.26967e-07 3.80888e-08 -5.16918e-09
-2.50736e-08 -2.92351e-09 -1.51504e-09
1.23156e-07 3.75744e-08 -3.90324e-09
1.0074e-07 5.76282e-08 4.38772e-09
1.8696e-09 2.99217e-08 -5.78711e-09
1.70336e-09 2.5328e-08 -4.72499e-09
-6.21933e-08 3.27484e-08 -7.83895e-09
-6.20196e-08 2.94452e-08 -7.53017e-09
1.89104e-07 1.64602e-08 -1.34914e-08
-9.37833e-08 -2.50566e-08 -2.63632e-09
-9.40823e-08 -2.47257e-08 -2.88747e-09
1.94652e-07 1.40768e-08 -1.00335e-08
1.96965e-07 1.2874e-08 -1.07186e-08
-1.09062e-07 -6.86132e-09 1.03848e-09
-1.1228e-07 -7.25225e-09 5.11718e-10
5.89953e-08 6.03438e-08 -5.63495e-11
5.01675e-08 6.26653e-08 -3.99307e-10
4.93156e-08 6.16743e-08 1.47197e-09
1.24597e-07 4.02059e-08 7.56053e-10
-2.07329e-09 7.46948e-08 6.65227e-09
1.232e-07 4.11048e-08 2.29187e-09
1.22688e-07 4.14001e-08 1.81923e-09
-4.30227e-08 6.34259e-08 -2.14329e-08
-5.05941e-08 6.17804e-08 -2.23785e-08
-5.92687e-08 6.36917e-08 -2.16467e-08
-8.56345e-08 3.59896e-08 2.10415e-08
-8.54977e-08 3.48416e-08 1.82507e-08
-6.5261e-08 5.84729e-08 -2.13243e-08
-6.51701e-08 6.06238e-08 -2.13426e-08
1.34867e-07 3.66122e-08 2.0683e-09
1.36763e-07 3.59581e-08 5.80338e-10
1.08267e-07 5.12153e-08 1.58676e-08
1.14201e-07 4.89846e-08 1.41234e-08
9.27906e-08 5.79101e-08 1.08785e-08
1.0665e-07 4.99139e-08 1.40468e-08
6.63726e-09 8.56343e-08 3.57123e-09
9.28846e-08 5.36373e-08 -1.41328e-09
1.6507e-08 6.56896e-08 6.62374e-09
8.42569e-09 6.73943e-08 8.57002e-09
-5.14347e-08 5.92987e-08 -2.33282e-08
7.34466e-09 6.42513e-08 8.13475e-09
8.68806e-08 -2.5009e-08 1.27376e-08
-1.07923e-07 -1.56156e-08 -3.36058e-09
-1.06711e-07 -1.67956e-08 -4.04998e-09
1.16591e-07 4.69795e-08 5.41118e-09
1.18375e-07 4.69325e-08 5.68788e-09
8.46338e-08 -2.90222e-08 1.57446e-08
1.22283e-10 6.4049e-08 1.02154e-08
4.38242e-09 6.82562e-08 8.16489e-09
9.76355e-08 5.35387e-08 1.15905e-09
-7.12269e-08 -3.78104e-08 -1.37239e-09
5.4979e-08 7.79976e-08 1.07173e-09
1.35435e-07 3.99375e-08 1.12556e-08
-7.7682e-08 4.29036e-08 -1.08701e-08
3.89533e-08 8.03834e-08 8.54161e-10
4.64265e-08 8.18769e-08 3.6388e-10
-4.04012e-08 6.72788e-08 -1.3312e-08
1.92748e-08 -5.50814e-08 8.52369e-09
1.60192e-08 -5.79015e-08 7.45962e-09
-2.3961e-08 5.6553e-08 1.94913e-09
2.72107e-08 -5.49179e-08 8.61992e-09
2.00228e-07 1.54597e-08 -3.00301e-08
2.05671e-07 1.80965e-08 -3.4749e-08
-5.70562e-08 -3.01357e-08 -3.46972e-09
-5.71566e-08 -3.05557e-08 -4.20032e-09
2.06263e-07 1.75232e-08 -3.86246e-08
-6.96746e-08 4.76168e-08 -1.59661e-08
-6.80856e-08 5.09665e-08 -1.69523e-08
-2.93423e-08 7.53001e-08 -1.37927e-08
7.05163e-08 6.12318e-08 5.6674e-10
-3.61975e-08 6.95555e-08 -1.48975e-08
-3.61718e-08 7.26177e-08 -1.40123e-08
-1.10959e-07 -9.98984e-09 -2.70547e-09
-1.0876e-07 -1.14389e-08 -2.44936e-09
-1.09682e-07 -1.10737e-08 -2.00239e-09
-2.46088e-08 8.06836e-09 9.67699e-10
2.86455e-08 7.45684e-08 3.51071e-09
-3.10083e-08 6.2506e-08 1.35483e-08
3.40136e-08 7.32826e-08 1.56836e-09
1.39829e-07 3.8534e-08 9.54743e-09
-1.10928e-07 -1.60425e-08 -2.88405e-09
-1.09746e-07 -1.64342e-08 -3.10819e-09
-3.52344e-08 7.05035e-08 -1.7224e-08
-4.33274e-08 6.82453e-08 -1.84675e-08
2.75513e-09 6.5254e-08 1.03974e-08
-7.29285e-09 6.37673e-08 1.40219e-08
-6.72218e-09 6.70134e-08 1.2713e-08
-3.41659e-08 -8.17556e-09 1.48673e-09
-3.26462e-08 -1.02784e-08 1.57697e-09
1.85436e-07 2.77087e-08 -4.73952e-08
1.85442e-07 2.8444e-08 -4.46982e-08
-7.65858e-09 6.48427e-08 1.43025e-08
-7.80056e-09 6.39757e-08 1.13783e-08
-1.27094e-07 1.40806e-08 -1.02308e-08
9.7961e-08 5.5444e-08 1.91292e-08
-1.29254e-07 1.30999e-08 -8.6036e-09
3.73568e-08 7.45585e-08 1.0766e-08
4.06797e-08 7.67976e-08 1.41902e-08
-1.28277e-07 1.28006e-08 -6.90225e-09
1.54636e-08 6.40597e-08 5.87929e-09
1.17641e-08 6.53868e-08 7.76586e-09
9.53654e-08 5.83808e-08 5.85254e-09
1.84847e-07 2.19678e-08 1.72166e-08
1.15455e-07 4.80721e-08 6.59205e-09
9.0267e-08 6.00668e-08 7.24207e-09
3.52339e-09 6.40295e-08 1.09021e-08
1.70741e-07 -2.20987e-08 -1.21028e-08
1.71546e-07 -2.09188e-08 -1.08212e-08
1.67991e-08 -4.38571e-08 -6.14692e-09
1.94373e-08 -4.08576e-08 -6.54229e-09
9.70653e-08 5.85486e-08 6.36231e-09
9.20473e-08 4.95258e-08 -2.49801e-09
-2.81567e-09 7.10344e-08 8.92063e-09
8.71436e-08 5.2508e-08 -3.49781e-09
2.2078e-07 -6.19933e-09 3.94889e-08
1.90956e-07 -1.23209e-08 1.11544e-08
9.96946e-08 5.45038e-08 1.29571e-08
-4.86231e-08 1.1521e-09 -2.50067e-09
9.35577e-08 5.43332e-08 1.09427e-08
9.12906e-08 5.78355e-08 8.94838e-09
-1.2942e-07 1.08802e-08 -9.09742e-09
-1.27959e-07 1.24633e-08 -1.11402e-08
-1.02803e-07 3.35175e-08 2.36136e-08
-1.04883e-07 3.0171e-08 2.09472e-08
-1.2707e-07 1.31002e-08 -1.15137e-08
-1.2163e-07 1.86481e-08 -6.31455e-09
-1.21607e-07 1.82596e-08 -5.27919e-09
-5.61788e-08 4.9914e-08 1.65133e-08
-5.67113e-08 4.88099e-08 1.40816e-08
1.41229e-07 3.73652e-08 1.08312e-08
7.82163e-08 6.80048e-08 3.4509e-08
6.20119e-08 7.04828e-08 3.24279e-08
7.25756e-08 -3.14948e-08 1.27576e-08
7.31239e-08 -2.98661e-08 1.19354e-08
-5.10881e-08 -5.05133e-08 7.00606e-10
-5.42794e-08 -4.77238e-08 2.09053e-10
2.60986e-08 8.49843e-08 1.61923e-09
-5.98146e-08 5.61254e-08 9.25367e-09
6.31973e-08 7.18355e-08 5.22192e-09
-6.9873e-08 4.79284e-08 -1.37164e-08
-7.37356e-08 -2.41349e-08 1.17938e-09
-7.29839e-08 -2.37644e-08 5.12957e-10
-7.38502e-08 4.44534e-08 -1.31066e-08
1.79032e-07 2.55213e-08 2.58932e-08
-6.07607e-08 5.30156e-08 9.94729e-09
7.10408e-08 7.03558e-08 5.03874e-09
1.2426e-07 4.4682e-08 8.21266e-09
1.25634e-07 4.40542e-08 1.00043e-08
-9.16807e-08 5.88381e-09 -6.9779e-09
-8.99517e-08 8.24181e-09 -7.68207e-09
-1.11857e-07 2.18966e-08 4.76475e-09
-1.14229e-07 2.25759e-08 7.76474e-09
1.29225e-07 4.20701e-08 8.02458e-09
3.25679e-08 -5.68978e-08 5.62457e-09
1.40022e-07 3.26127e-08 -9.70595e-09
1.4914e-07 3.1221e-08 -8.10815e-09
2.00485e-07 1.33845e-08 -1.40572e-09
1.08649e-07 5.16262e-08 4.25751e-09
-1.23245e-08 6.24413e-08 1.31595e-08
-8.9837e-08 1.39042e-08 -9.62802e-09
-8.89884e-08 1.24923e-08 -9.05937e-09
1.94878e-07 1.54529e-08 -7.67013e-10
1.09e-07 4.96589e-08 2.8415e-09
1.10777e-07 4.76759e-08 2.663e-09
1.97128e-07 1.49707e-08 -3.88814e-09
5.47681e-08 3.204e-08 -1.92907e-08
-6.63324e-08 -3.28898e-08 4.92952e-10
-6.14448e-08 -3.24796e-08 4.12169e-10
8.55136e-08 5.80914e-08 9.91095e-09
8.58446e-08 5.84093e-08 1.1629e-08
8.32342e-08 5.99116e-08 9.92329e-09
7.49454e-08 6.35032e-08 8.99229e-09
7.04768e-08 6.64e-08 8.852e-09
-5.65104e-08 5.52296e-08 -2.2254e-08
-6.30112e-08 5.1094e-08 -2.03347e-08
-7.53226e-08 -3.7673e-08 -3.31931e-09
-7.37222e-08 -3.86391e-08 -2.30901e-09
9.39844e-08 5.57128e-08 1.00339e-08
-7.38672e-08 4.57383e-08 -1.12052e-08
1.92876e-07 1.47239e-08 -1.45887e-08
1.90168e-07 1.55004e-08 -1.32902e-08
1.12408e-08 2.97823e-08 9.36377e-09
-1.01302e-09 7.56087e-08 -8.36443e-09
-1.75337e-08 6.34592e-08 1.45592e-08
-2.30132e-08 7.34989e-08 1.33167e-08
-4.39324e-08 -1.49999e-08 -1.20086e-09
-3.61244e-09 7.49137e-08 -1.05154e-08
-4.00157e-08 -3.89256e-08 -4.17247e-09
-3.91201e-08 -3.89722e-08 -3.14925e-09
9.80315e-09 7.40378e-08 -6.74696e-09
1.13184e-07 5.02432e-08 7.5338e-09
-2.74762e-08 -3.87336e-08 -1.51936e-10
-2.7937e-08 -3.9546e-08 -7.78437e-10
1.11202e-07 5.04736e-08 6.27219e-09
7.81647e-09 8.18086e-08 -3.22898e-09
1.22834e-07 4.49895e-08 7.48762e-09
1.92648e-07 1.45971e-08 -1.39452e-08
-1.26899e-07 1.9605e-10 -5.48574e-09
-1.25666e-07 3.5828e-10 -5.63456e-09
-6.51782e-08 -1.47423e-08 -3.30718e-10
-5.94258e-08 -1.46819e-08 -5.00359e-10
1.84836e-07 1.78254e-08 -1.70108e-08
2.68029e-08 8.44486e-08 2.23281e-10
4.18008e-08 6.34434e-08 -8.46738e-10
3.27568e-08 8.17883e-08 1.60118e-09
7.94157e-08 6.74429e-08 2.16985e-08
7.64394e-08 6.96826e-08 2.04366e-08
7.90025e-08 -3.01313e-08 1.52725e-08
8.43159e-08 -2.96345e-08 1.47283e-08
7.46357e-08 6.51682e-08 1.84207e-08
9.17498e-08 6.03268e-08 1.74088e-10
3.28377e-08 6.26857e-08 4.21372e-10
8.83021e-08 6.32236e-08 2.05854e-09
7.93144e-08 -1.68856e-08 5.45784e-09
8.6737e-08 -1.90098e-08 7.30998e-09
7.28671e-08 6.12694e-08 -1.16439e-09
6.55196e-08 5.98806e-08 -7.83204e-11
5.94849e-08 6.37003e-08 -1.34273e-09
-1.18506e-07 -1.05115e-08 -2.82721e-09
-1.19156e-07 -1.06041e-08 -2.41623e-09
1.2439e-07 -2.52752e-08 1.58847e-08
1.18556e-07 -2.51339e-08 1.49302e-08
4.0163e-08 7.56865e-08 1.2537e-08
5.11399e-08 7.53987e-08 1.4626e-08
5.66862e-08 6.46755e-08 2.39836e-10
-9.913e-08 -2.19232e-08 -2.98462e-09
-2.1931e-08 6.10904e-08 1.53551e-08
-3.02129e-08 5.9293e-08 1.54083e-08
-3.00568e-08 5.82272e-08 1.70318e-08
2.68499e-07 -1.44356e-08 2.32016e-08
2.82631e-07 -1.3672e-08 3.00419e-08
-7.26661e-08 4.49488e-08 -2.07869e-08
-7.289e-08 4.37626e-08 -1.85092e-08
-9.33665e-08 3.21561e-08 1.87868e-08
-9.22483e-08 3.27542e-08 1.80622e-08
8.94838e-08 6.35242e-08 4.46787e-09
9.20879e-08 6.17676e-08 6.10432e-09
-1.19375e-07 1.98915e-08 -9.67286e-09
9.69522e-08 5.915e-08 4.52312e-09
3.0195e-08 8.0873e-08 -1.49639e-08
1.23493e-08 -4.52993e-08 8.37354e-09
5.32942e-09 -4.61308e-08 7.67956e-09
3.82175e-09 -4.57224e-08 6.24866e-09
2.71948e-09 6.61602e-08 9.15945e-09
-8.01628e-09 6.63475e-08 1.07509e-08