# vtk DataFile Version 2.0
S, Created by Mohamad Ibrahim Cheikh
ASCII
DATASET UNSTRUCTURED_GRID
POINTS 23916 double
-149.912 57.2793 106.732
-152.648 54.9115 107.499
-285.951 -68.505 52.1554
-282.986 -67.8681 54.8961
-354.477 11.6473 43.6405
9.95797 5.15645 131.853
-324.839 52.2585 42.1207
-297.338 -64.034 49.996
-324.108 50.2935 45.0972
-332.06 -40.2339 48.0162
-328.929 -39.7871 50.9386
-335.307 -36.8867 47.9419
-334.754 -33.64 50.7226
64.422 45.9462 -121.675
67.5582 48.6189 -120.422
-319.615 -54.4214 44.2216
-322.125 -51.6445 45.3088
-13.7866 16.7167 130.848
-358.83 -7.57721 -40.0325
-359.215 -11.0165 -38.791
-343.711 7.14663 53.9385
-138.494 -107.786 58.8046
-138.822 -106.074 61.7485
-296.53 -76.7684 -27.6636
-299.261 -76.3468 -25.112
-170.698 61.1477 -100.586
-167.181 62.8735 -100.245
-345.006 10.1264 52.4274
-289.343 20.4252 82.2012
-268.347 74.8493 54.8212
-264.446 76.5041 54.8575
-173.741 51.5551 105.216
-171.777 54.0527 104.354
-291.355 16.9811 82.1144
-333.288 -13.7189 60.3004
-331.55 -10.4648 62.0991
-268.161 91.8674 13.4309
-242.334 -24.9529 98.0385
-245.301 -26.8033 96.6365
-194.934 -99.7911 -53.0421
-198.775 -99.9552 -50.9467
-195.193 -93.1219 63.9351
-198.447 -93.5456 62.0623
-186.38 -98.9489 58.1392
-216.538 -3.93558 108.018
-216.065 0.0442618 108.205
-189.805 -99.2247 56.2832
-212.926 102.732 36.3228
-213.076 101.573 39.3504
-282.665 -11.2392 86.6924
-281.833 -7.46113 87.4281
319.355 25.7154 -65.3936
321.435 22.477 -65.3389
-265.598 14.047 92.683
-266.952 10.5092 92.6754
18.4695 8.78454 -131.549
-302.883 -63.9277 -45.8882
-300.661 -63.5368 -48.1638
-310.818 -64.1424 -38.4967
184.586 80.652 82.1451
-308.012 -64.3746 -40.8012
18.6331 95.7766 -90.5998
-261.565 93.8346 -15.5835
-265.222 92.494 -16.0247
-308.508 -65.0657 39.216
-311.029 -63.0375 40.0805
-21.0311 8.85225 -131.497
-161.025 114.419 34.0275
-163.508 113.266 36.3553
17.3346 14.9374 131.012
13.4681 16.704 130.854
-246.388 21.0046 97.7261
-249.115 18.5362 97.3787
-319.629 33.8681 61.3931
-251.247 20.9006 -96.2223
-9.79668 18.721 130.621
-253.769 23.4236 -94.8209
-238.68 -26.7174 98.6689
-237.449 -30.3854 97.9686
304.433 -7.53634 77.5913
302.933 -4.37026 78.5471
-310.771 50.5117 55.2125
-314.45 49.7884 53.2857
-141.882 112 49.1474
-139.52 111.069 52.0048
-257 65.9181 70.6567
-261.226 64.2784 70.2691
-321.898 30.2362 61.8361
-353.95 7.74046 45.0102
-363.795 1.33179 -34.9127
-366.114 1.23737 -31.8106
-171.515 -90.6892 -74.8189
-173.225 -88.3277 -77.1263
18.4197 -7.68536 131.618
-346.726 23.5163 -46.3949
-227.372 -71.8583 -77.0128
-229.91 -69.7043 -78.0629
-218.306 73.9394 78.2445
-214.885 73.3572 79.9338
-174.933 -83.9908 -81.3817
-182.44 85.2239 78.0121
-352.016 21.3343 -42.4011
-268.218 78.2472 49.9359
-270.378 76.0108 51.9247
-303.103 11.9499 -77.6748
68.5822 -2.34454 -129.779
-304.676 8.63448 -77.3596
-340.969 -42.7084 36.963
-338.046 -44.7754 37.7937
-337.816 51.8189 -27.696
35.359 21.567 -129.637
-334.646 53.9794 -28.2755
-349.5 23.942 -43.5412
-225.303 100.593 -33.0198
-221.781 101.824 -32.1561
-220.612 103.252 -28.3629
-224.052 102.97 -25.9863
-148.008 -120.975 -10.3511
-151.447 -119.828 -16.0343
-354.884 23.2554 38.2623
-278.33 -82.5917 -33.4393
-274.844 -83.8815 -33.7574
-151.065 -120.361 -11.9752
40.1151 24.691 128.908
-19.6194 6.30664 131.67
-16.5036 8.20768 131.618
-243.192 -33.7348 95.1059
77.6421 -9.5883 128.818
-15.9511 -1.50945 131.873
-245.727 -30.6765 95.3435
-270.505 31.5087 86.4441
-277.73 -77.1577 45.0239
-266.385 33.2789 87.3425
-13.658 -4.30096 131.843
-265.697 36.365 86.3634
-18.8606 3.2044 131.796
-277.455 76.8184 -45.8045
-278.046 78.5175 -42.355
-204.863 48.5127 99.6608
-208.105 48.0935 99.0395
-269.871 79.5369 46.7039
-244.342 -89.302 46.2565
-281.443 -72.9493 49.0372
-281.04 -75.3151 45.6254
-287.9 6.87499 -85.0231
-288.677 3.35306 -84.9121
295.218 60.2469 -55.8934
297.73 58.2925 -56.3325
298.707 55.7187 -58.2708
-28.4864 -22.7833 -129.636
-289.792 83.7703 -11.1767
-231.386 84.513 61.0465
-233.466 82.4824 62.8285
-109.502 116.256 -49.4018
-366.083 12.2246 -29.4424
-291.577 83.3928 -7.80885
-375.273 -8.43455 10.5333
-375.329 -10.9993 7.48255
-289.542 84.4513 -5.29626
-363.504 33.2056 -12.0001
-361.574 36.0949 -10.7296
166.401 99.7106 63.967
164.267 101.794 61.3055
159.992 102.588 61.367
-356.844 -21.4798 -37.0491
-354.044 -22.4227 -39.6846
-115.955 113.403 -54.0142
-342.393 50.8143 22.1133
-344.396 48.7985 22.8344
-345.169 46.6268 25.7558
-343.846 46.0809 28.7324
132.565 -117.3 -38.8987
-318.118 -64.0028 -30.6236
-321.468 -62.4086 -29.6134
130.117 -116.657 -41.7405
126.343 -117.195 -41.6526
-211.535 78.4791 76.07
-210.922 76.1718 78.5822
-342.105 -46.9852 29.7931
-338.966 -49.6448 29.8723
-113.742 115.064 -50.9947
-301.417 -71.2358 35.0196
-254.664 -39.4451 -89.0393
-297.829 -72.215 36.7309
-294.744 -74.4963 35.1888
-326.261 -14.3326 -64.7015
-327.804 -16.9662 -63.0899
-159.538 -108.974 -49.3206
-326.118 -20.55 -63.0938
-219.745 -99.5907 39.9225
-297.499 54.2278 60.395
-299.956 51.5975 61.2058
-319.589 -44.8725 -53.9049
-319.163 -47.7222 -51.7227
-315.383 -53.0241 -49.3431
-312.523 -55.6665 -48.6555
-299.35 -45.2538 -66.3706
-303.461 -43.8731 -64.9977
-312.983 33.447 65.6676
-313.07 29.3198 67.5617
-226.644 100.3 32.7875
-230.132 99.3205 32.7935
-282.461 0.316168 -87.4981
-280.554 -2.94889 -88.1971
-286.293 13.2104 -84.939
-285.183 16.4311 -84.8342
-203.174 75.8122 -81.3796
-201.847 73.3487 -83.9992
-277.558 -64.1496 -62.2654
-273.662 -65.3131 -63.1607
-164.56 -110.05 -44.6952
-142.965 -120.911 17.3826
-242.982 -68.4094 -74.2687
-314.668 72.5055 -6.66237
-273.793 55.2659 72.0552
-315.921 71.3677 -10.5526
-163.615 -108.868 -47.8987
-158.432 -118.139 19.8535
65.4734 10.6147 129.563
62.3772 12.4876 129.583
-155.288 -119.116 16.8236
-49.8333 -118.559 -55.3517
-241.88 52.9554 86.3529
-241.83 56.4056 84.1575
-219.887 -89.4346 -59.211
-217.389 -88.3202 -61.9493
-350.117 16.7025 46.2307
-245.411 51.1116 86.2441
52.3343 80.9836 -102.617
-4.7958 -15.6169 131.062
-236.592 57.9839 -84.9042
-234.64 56.0205 -86.8629
-361.869 2.46011 37.226
42.03 -12.5794 -130.574
48.6172 82.6195 -101.531
-220.34 -54.8905 92.0166
-220.317 -57.68 90.3012
231.611 -100.508 27.469
227.615 -101.71 27.1326
226.37 -102.864 23.8574
-105.023 120.439 -39.6002
-289.755 79.5998 -28.4409
-291.483 77.7276 -31.3115
-104.915 119.076 -43.5589
-316.709 -14.2843 -70.2826
335.598 30.576 51.9636
-35.7138 5.24927 -131.302
-39.6919 5.75876 -131.141
-309.12 65.1774 38.4319
332.628 26.1024 56.5404
335.453 27.5673 53.7315
-273.32 -27.2211 86.8157
-270.142 -29.4868 87.2924
-208.45 -13.3639 109.205
-208.65 -16.7851 108.684
-115.053 100.979 74.8773
-117.636 102.069 72.8814
-373.122 -19.3943 -1.75679
-286.774 -79.1951 -32.9168
-284.477 -81.3987 -29.8375
-213.938 -96.4595 50.1596
-370.782 -24.2454 2.11714
-371.539 -22.8229 -1.61637
-253.024 -97.3101 10.7975
-261.673 -94.7508 7.94465
-255.946 -96.1695 12.4591
-259.743 -95.0741 11.1795
14.9039 16.7116 -130.834
-346.629 -27.4199 44.2937
-259.304 36.5504 88.6342
-255.715 38.4626 89.1005
-357.445 41.8854 -5.2024
-359.573 39.8347 -2.79143
-238.231 -73.4743 -71.2537
8.07635 2.50523 131.946
-347.727 -24.158 -45.1311
-349.594 -20.2622 -45.2826
-331.038 55.3944 30.6391
-166.2 72.3947 -93.8145
-243.139 -46.4462 -89.605
-239.685 -47.0607 -90.4201
-162.023 77.302 -90.7437
-162.646 74.347 -93.0472
-288.394 -76.3063 37.6652
-291.45 -74.5816 38.2354
-285.075 -76.6918 39.9089
-324.896 -30.7413 59.6282
-324.997 -36.6298 56.1315
-323.555 -33.928 58.7869
-297.879 -68.2854 43.5613
-301.029 -66.8324 43.1623
-303.276 -67.2249 40.5479
338.623 -10.6768 -57.1965
341.093 -8.32899 -55.772
-350.951 -46.1384 -14.6932
-312.226 68.1251 29.1181
-353.733 -43.2055 -15.4251
-306.053 63.0363 44.5257
-309.306 60.6846 45.0385
-298.895 17.5613 -78.5994
-296.608 19.5245 -79.1949
-336.091 -2.68999 -59.8944
-334.76 0.717245 -60.8559
-284.602 75.3523 -42.7712
-281.82 77.6025 -40.965
-315.183 69.0158 22.3276
-310.918 72.5084 18.1993
-276.753 87.6129 19.2559
-312.167 70.8552 21.7466
-348.442 7.59232 -50.0188
-351.507 7.26597 -47.3713
-352.746 10.5499 -45.5929
294.331 52.6134 63.6367
297.811 51.5562 62.5093
-53.3499 76.3358 106.058
-273.526 -72.8722 54.3494
299.424 48.1542 64.2551
-272.76 -62.6572 -66.2533
-333.007 59.2752 18.2673
-334.594 57.163 21.2121
-269.861 -62.3328 -67.9898
-266.832 -64.4061 -67.5196
-317.083 69.237 -17.9122
-313.552 71.3102 -17.3806
-350.418 46.1263 -16.2104
-312.816 72.5034 -13.6738
-119.898 -107.866 63.4731
-116.842 -108.905 62.3888
-340.06 56.5286 -8.40073
-338.928 56.1512 -14.3931
-340.663 55.4834 -11.7224
-334.221 -9.30565 -60.5098
-331.641 -11.656 -61.8264
-333.554 -5.31213 -61.4357
-328.868 26.6819 58.9129
-328.285 22.7891 60.9115
-298.234 58.9717 -55.2898
-301.691 58.5597 -53.3992
-204.572 98.4124 -51.1404
-201.929 97.6802 -53.7627
-155.463 -57.4846 -105.643
-156.028 -60.6115 -103.777
-159.934 -61.6369 -102.437
-175.583 67.5568 95.3186
10.8937 130.913 -16.4666
8.14567 131.254 -13.7213
-15.5196 1.52973 131.879
-290.385 9.26458 -83.7522
-293.486 9.00314 -82.4472
-239.162 -70.3845 -73.9404
-272.426 -62.7458 66.3378
13.568 131.219 -13.5313
-101.959 -97.1366 -81.9495
-306.024 49.1489 59.5204
-306.366 46.2221 61.6128
-200.407 -99.1682 51.6962
-201.153 -100.59 48.4948
25.6413 -70.1714 -111.443
29.1141 -69.4223 -111.807
-102.894 -99.621 -78.762
-362.977 -28.3638 -22.1131
-331.889 -49.6202 -38.42
-329.115 -53.1542 -36.5701
-365.288 -26.4473 -19.6965
-348.092 -10.1791 -49.857
-350.919 43.4475 -21.4419
-309.837 3.9298 75.2022
-310.923 7.25755 74.4016
-319.623 -45.1775 53.625
-344.763 -10.574 -52.5352
-138.18 35.7163 117.519
-134.649 37.2678 117.539
-343.334 -7.47453 -54.1868
-331.442 -48.102 40.7523
-39.367 -1.67322 131.269
-209.074 101.949 40.9718
-205.898 103.31 39.5045
-190.898 -82.7733 -78.1727
-326.444 29.9135 59.0111
-197.526 -81.9912 -76.9716
-194.019 -81.0356 -79.0476
-346.602 11.6124 -50.8058
17.7489 -82.6026 -102.773
-335.872 34.4691 -49.2396
-336.065 37.6955 -46.6457
-9.30002 128.992 -27.8276
-4.96041 130.121 -22.1256
[...]
POINT_DATA 23916
VECTORS F double
-9.44585e-08 8.07701e-07 -4.49709e-07
-8.35267e-08 8.01294e-07 -4.23832e-07
-2.72728e-07 1.81197e-07 5.4931e-08
-2.68084e-07 1.79407e-07 5.26069e-08
1.47641e-07 2.8917e-07 6.96465e-08
-8.32995e-07 -1.08252e-07 1.19356e-08
2.14769e-07 2.88461e-07 -1.55105e-07
-2.53883e-07 2.09439e-07 8.33874e-08
2.06895e-07 2.94851e-07 -1.46779e-07
-1.02162e-07 2.86179e-07 1.53297e-07
-9.76772e-08 2.90527e-07 1.49703e-07
-8.98352e-08 3.00065e-07 1.53946e-07
-5.0435e-08 2.945e-07 1.54564e-07
-7.0388e-07 -6.55859e-07 -2.93288e-07
-6.50739e-07 -7.00525e-07 -3.27525e-07
-2.18786e-07 2.54206e-07 1.19239e-07
-2.00001e-07 2.68109e-07 1.31513e-07
-8.98344e-07 1.08288e-08 -1.29718e-08
-1.80705e-08 4.45308e-07 -6.4455e-08
-6.42992e-08 4.52168e-07 -5.55139e-08
1.56664e-07 3.06247e-07 8.16468e-08
-4.99389e-07 1.28375e-07 9.13095e-08
-4.95163e-07 1.3217e-07 9.07552e-08
-5.60321e-07 2.58444e-07 1.81377e-08
-5.60024e-07 2.6206e-07 2.0354e-08
1.61193e-07 9.294e-07 5.31504e-07
1.42564e-07 9.62007e-07 5.7426e-07
1.61541e-07 3.04702e-07 7.12954e-08
1.48438e-07 4.4621e-07 -4.69045e-08
3.3697e-07 3.92492e-07 -3.3394e-07
3.39423e-07 3.90195e-07 -3.43841e-07
-2.60256e-08 7.87112e-07 -3.90941e-07
-3.27045e-08 7.86447e-07 -4.13951e-07
1.5251e-07 4.41465e-07 -2.50431e-08
8.40116e-08 3.22557e-07 1.30234e-07
1.02483e-07 3.1951e-07 1.20832e-07
5.62041e-07 2.30698e-07 -2.04099e-07
-1.46665e-07 3.52895e-07 4.54346e-08
-1.31851e-07 3.23939e-07 4.88721e-08
-5.2795e-07 1.83077e-07 -1.06885e-07
-5.23438e-07 1.76354e-07 -9.59647e-08
-3.9408e-07 1.64076e-07 9.16798e-08
-3.86771e-07 1.53025e-07 7.92394e-08
-4.23277e-07 1.54447e-07 9.67294e-08
-1.95004e-07 5.25617e-07 -2.87094e-08
-1.70661e-07 5.25209e-07 -4.19364e-08
-4.17611e-07 1.45531e-07 8.41432e-08
8.71825e-07 3.35337e-07 -3.22736e-07
8.21049e-07 3.36151e-07 -3.23377e-07
4.88987e-08 3.70078e-07 6.74981e-08
5.40748e-08 3.73102e-07 5.31819e-08
-7.09507e-09 -2.98288e-07 -1.2154e-07
-2.25369e-08 -3.09304e-07 -1.19976e-07
7.44598e-08 4.76485e-07 -4.6092e-08
7.33563e-08 4.75617e-07 -2.80641e-08
-1.00283e-06 -3.75992e-07 -4.23459e-08
-4.95882e-07 2.87887e-07 -3.40052e-10
-4.94258e-07 2.86693e-07 -4.55062e-10
-5.08262e-07 3.03905e-07 -3.9466e-09
9.50774e-08 -2.62683e-07 2.31752e-07
-5.08463e-07 3.01366e-07 -5.54203e-09
5.063e-08 -4.70139e-07 -4.95728e-07
6.80605e-07 2.36591e-07 2.599e-08
6.78142e-07 2.41265e-07 1.84378e-08
-3.02851e-07 2.31239e-07 9.19728e-08
-2.94192e-07 2.40828e-07 9.92642e-08
-9.90058e-07 -4.76586e-08 1.6178e-08
1.37053e-06 3.39617e-07 -3.47937e-07
1.28789e-06 3.62928e-07 -4.2156e-07
-8.65453e-07 -1.80347e-07 3.4582e-08
-8.59435e-07 -1.64669e-07 3.18505e-08
1.7528e-08 5.39943e-07 -1.10641e-07
3.4371e-08 5.15779e-07 -8.74143e-08
1.97588e-07 3.54277e-07 -6.94964e-08
2.69777e-07 3.91755e-07 -1.14813e-09
-8.85848e-07 -1.06783e-08 -6.60377e-09
2.94156e-07 4.13602e-07 5.78913e-09
-1.5082e-07 3.42032e-07 4.79479e-08
-1.83579e-07 3.29668e-07 4.7773e-08
-2.42917e-07 -2.55217e-07 9.18988e-08
-2.40209e-07 -2.55164e-07 9.92242e-08
2.13542e-07 3.55106e-07 -1.77717e-07
2.08762e-07 3.3699e-07 -1.64045e-07
1.27799e-06 4.55976e-07 -5.87411e-07
1.28043e-06 4.70282e-07 -5.83833e-07
2.63137e-07 4.85121e-07 -3.35407e-07
2.6285e-07 4.77632e-07 -3.1728e-07
1.98647e-07 3.5446e-07 -4.67173e-08
1.38843e-07 2.90975e-07 8.36345e-08
4.18246e-08 4.30041e-07 -3.69527e-08
3.84923e-08 4.14209e-07 -3.81262e-08
-4.97043e-07 2.32188e-07 -1.41938e-07
-4.79941e-07 2.42712e-07 -1.45989e-07
-7.66586e-07 -1.42679e-07 4.80341e-09
2.78493e-07 3.84268e-07 -6.00379e-08
-4.30921e-07 2.0153e-07 -3.22799e-08
-4.32502e-07 2.04095e-07 -2.62898e-08
3.28571e-07 5.70581e-07 -4.26952e-07
3.39537e-07 5.97652e-07 -4.36729e-07
-4.62735e-07 2.56842e-07 -1.43299e-07
4.5466e-07 6.44205e-07 -5.73582e-07
2.47221e-07 3.8628e-07 -5.69243e-08
3.65887e-07 3.63452e-07 -3.28903e-07
3.36912e-07 3.79303e-07 -3.40464e-07
2.63083e-07 3.88925e-07 -6.58528e-08
-7.87917e-07 -4.35011e-07 -4.31185e-08
2.31557e-07 4.02712e-07 -6.67048e-08
-1.80369e-07 2.96987e-07 1.39445e-07
-1.83246e-07 2.93545e-07 1.47101e-07
3.79202e-07 2.53936e-07 -9.11589e-08
-9.65284e-07 -4.85248e-07 -1.12962e-07
3.8759e-07 2.41734e-07 -1.0013e-07
2.69106e-07 3.64351e-07 -6.41149e-08
9.32458e-07 3.71062e-07 3.51468e-07
9.35849e-07 3.61997e-07 3.56045e-07
9.94373e-07 3.54145e-07 3.42295e-07
9.53643e-07 3.25346e-07 2.82517e-07
-6.4198e-07 9.86013e-08 -2.85144e-08
-6.37582e-07 1.03831e-07 -3.86685e-08
1.72207e-07 2.72799e-07 2.97451e-08
-5.60795e-07 2.24202e-07 1.77178e-08
-5.61975e-07 2.19434e-07 1.49196e-08
-6.3793e-07 1.01779e-07 -3.77192e-08
-7.96632e-07 -3.37635e-07 9.50215e-08
-8.44971e-07 3.7007e-08 -1.7187e-08
-8.41513e-07 3.33158e-08 -1.49961e-08
-1.68393e-07 2.95477e-07 5.20905e-08
-6.37229e-07 -4.04171e-07 1.69389e-08
-8.04294e-07 1.27981e-08 -1.17642e-08
-1.40184e-07 3.2021e-07 5.87928e-08
1.29693e-07 4.99759e-07 -1.32474e-07
-3.37114e-07 1.63197e-07 2.50785e-08
1.26232e-07 5.206e-07 -1.51222e-07
-8.03847e-07 1.17683e-08 -9.8112e-09
1.33503e-07 5.15404e-07 -1.66737e-07
-8.21157e-07 4.20165e-08 -1.54085e-08
6.49933e-07 3.09318e-07 3.67583e-08
6.48427e-07 3.03305e-07 4.11147e-08
5.99636e-08 7.01592e-07 -3.26429e-07
5.93834e-08 6.73604e-07 -3.11825e-07
3.70658e-07 3.52119e-07 -3.3744e-07
-3.77565e-07 1.22228e-07 -8.20648e-09
-3.0626e-07 1.69973e-07 3.76554e-08
-3.32922e-07 1.71488e-07 3.20104e-08
2.18281e-07 3.61599e-07 -6.12527e-08
1.73368e-07 3.69787e-07 -5.75584e-08
1.70116e-07 -1.47987e-07 -4.95073e-08
1.56951e-07 -1.62433e-07 -6.65254e-08
1.39705e-07 -1.66376e-07 -7.14102e-08
-8.53956e-07 -5.07063e-08 3.18855e-08
5.29123e-07 2.08849e-07 -1.14308e-07
4.75821e-07 4.45561e-07 -3.96032e-07
4.45408e-07 4.64492e-07 -4.07159e-07
1.59286e-06 5.24902e-07 8.02976e-07
1.27579e-07 3.98053e-07 -2.89382e-08
4.95917e-07 1.9996e-07 -1.31638e-07
-4.45789e-08 3.48016e-07 8.42167e-08
-7.59235e-08 3.64113e-07 6.8963e-08
5.10138e-07 2.05157e-07 -1.43129e-07
2.19204e-07 2.80056e-07 -3.80032e-08
2.36156e-07 2.75042e-07 -4.90662e-08
3.12743e-07 -2.60658e-07 3.06705e-07
3.44321e-07 -2.44384e-07 2.92829e-07
3.41797e-07 -2.5518e-07 3.17487e-07
-1.65993e-07 4.34431e-07 -5.6126e-08
-1.70239e-07 4.52108e-07 -6.95042e-08
1.42971e-06 6.04589e-07 8.93575e-07
2.177e-07 2.28048e-07 -1.11348e-07
2.17384e-07 2.31887e-07 -9.41473e-08
2.09073e-07 2.3868e-07 -8.90515e-08
2.03698e-07 2.38736e-07 -8.44352e-08
-3.50369e-07 -4.76082e-08 -2.62251e-09
-5.09622e-07 3.13714e-07 -7.51508e-09
-5.06416e-07 3.22813e-07 -7.2606e-09
-3.48611e-07 -4.58188e-08 -4.99215e-09
-3.49578e-07 -4.5078e-08 -2.98733e-09
3.95051e-07 5.83654e-07 -4.67641e-07
3.45342e-07 5.84302e-07 -4.52894e-07
-2.49668e-07 2.97702e-07 1.18497e-07
-2.55302e-07 2.88718e-07 1.25143e-07
1.57752e-06 5.52862e-07 8.16684e-07
-3.54367e-07 2.15803e-07 6.55566e-08
-2.7006e-07 2.16908e-07 -1.52568e-09
-3.53396e-07 2.11451e-07 6.49023e-08
-3.64924e-07 2.01683e-07 5.2745e-08
-2.23081e-08 4.2839e-07 -8.11244e-08
-5.17637e-08 4.41511e-07 -8.58029e-08
-5.99984e-07 1.6429e-07 -1.2539e-07
-9.14992e-08 4.21572e-07 -7.94057e-08
-4.12928e-07 1.2021e-07 2.16064e-08
2.18334e-07 3.91504e-07 -2.19853e-07
2.17281e-07 3.95795e-07 -2.03291e-07
-3.40919e-07 3.68897e-07 -5.96238e-08
-3.77735e-07 3.66577e-07 -5.28532e-08
-4.2311e-07 3.43973e-07 -3.8536e-08
-4.41346e-07 3.25404e-07 -2.522e-08
-3.26273e-07 3.15173e-07 -3.47289e-08
-3.23811e-07 3.27848e-07 -3.62036e-08
2.00041e-07 3.80577e-07 -7.71136e-08
1.91172e-07 3.86758e-07 -5.93858e-08
7.61078e-07 3.03567e-07 -2.84532e-07
7.59322e-07 3.05203e-07 -2.7197e-07
1.42744e-07 3.55334e-07 -5.51326e-08
1.01742e-07 3.29057e-07 -5.06256e-08
2.78424e-07 3.87737e-07 -5.45908e-08
3.12415e-07 3.78044e-07 -5.53585e-08
5.82019e-07 7.42311e-07 5.13627e-07
5.31831e-07 7.39459e-07 4.89239e-07
-4.67658e-07 2.30651e-07 1.75955e-08
-4.68428e-07 2.24978e-07 1.584e-08
-5.98971e-07 1.56181e-07 -1.14557e-07
-5.86847e-07 8.71376e-08 1.51985e-08
-4.45237e-07 1.95681e-07 -1.90353e-09
4.03305e-07 2.00013e-07 -1.55384e-07
2.10282e-07 4.8053e-07 -2.70738e-07
4.08316e-07 1.97917e-07 -1.58078e-07
-5.97431e-07 1.60059e-07 -1.13947e-07
-5.58902e-07 9.80162e-08 3.72e-08
-6.72365e-07 -4.03775e-07 7.46788e-08
-6.81601e-07 -4.16882e-07 8.03436e-08
-5.74165e-07 9.45321e-08 2.04655e-08
-6.20849e-07 4.00037e-08 -1.72517e-08
1.64844e-07 5.70498e-07 -2.93324e-07
2.00347e-07 5.63106e-07 -3.06932e-07
-4.94375e-07 1.92254e-07 -6.56161e-08
-4.91984e-07 1.93761e-07 -6.48726e-08
1.67786e-07 2.88573e-07 5.13138e-08
1.68565e-07 5.58095e-07 -2.72024e-07
-2.75864e-07 -7.48554e-07 -6.07969e-07
-7.52798e-07 -3.85773e-08 -7.96925e-09
5.34531e-07 5.56567e-07 1.97736e-07
5.10573e-07 5.45671e-07 1.83064e-07
9.6059e-08 3.01318e-07 9.44099e-08
-8.49859e-07 -4.22116e-07 7.17462e-09
-2.87393e-07 -7.5601e-07 -6.32038e-07
-2.78039e-07 2.48067e-07 6.64667e-08
-2.87805e-07 2.44313e-07 7.00859e-08
-2.62534e-07 -8.19607e-08 -2.88786e-08
-2.65733e-07 -7.77681e-08 -1.85987e-08
-2.80076e-07 -7.86662e-08 -1.38224e-08
1.87775e-06 4.32709e-07 7.06331e-07
5.7874e-07 2.42302e-07 -4.37224e-08
5.6905e-07 2.44612e-07 -4.13372e-08
1.79987e-06 4.49028e-07 6.96738e-07
-5.61371e-09 4.05889e-07 -7.93959e-08
-4.96183e-08 -1.56592e-07 1.31373e-07
-9.47197e-07 7.05775e-08 3.4364e-08
-9.39419e-07 1.40401e-07 4.09761e-08
2.4783e-07 2.81506e-07 -2.33361e-07
-6.87715e-08 -1.75941e-07 1.30757e-07
-7.37881e-08 -1.54105e-07 1.35464e-07
-4.67587e-08 3.05635e-07 7.78092e-08
-5.85073e-08 2.86922e-07 7.47528e-08
-2.46056e-07 4.84702e-07 1.81306e-09
-2.6228e-07 4.82281e-07 1.2837e-08
7.84402e-07 7.06165e-07 -8.04767e-07
7.77623e-07 6.87365e-07 -8.08973e-07
-1.65905e-07 3.86455e-07 4.77481e-08
-5.61014e-07 2.40777e-07 1.9104e-08
-5.63381e-07 2.34335e-07 1.83426e-08
-3.90151e-07 1.28816e-07 4.39883e-08
-1.97338e-07 3.7448e-07 5.72106e-08
-1.89738e-07 3.74331e-07 5.41974e-08
-4.87996e-07 1.52533e-07 -2.5386e-08
-5.00615e-07 1.67848e-07 -1.69142e-08
-4.8822e-07 1.55851e-07 -2.4926e-08
-4.89075e-07 1.60921e-07 -2.26638e-08
-1.02434e-06 -3.63426e-07 -6.07071e-08
-4.57093e-08 3.15752e-07 1.5167e-07
1.22714e-07 5.26582e-07 -1.73195e-07
1.17476e-07 5.44277e-07 -1.93674e-07
2.42796e-07 2.46634e-07 -5.66911e-08
2.35201e-07 2.56212e-07 -5.30445e-08
-4.61643e-07 1.94104e-07 -1.11853e-08
-8.32868e-07 -1.09854e-07 8.32719e-09
-1.71348e-07 4.3766e-07 -7.26388e-08
-1.32379e-07 4.57886e-07 -7.97606e-08
2.26702e-07 2.48153e-07 -1.48771e-07
3.28296e-07 9.49539e-07 6.61534e-07
-3.1671e-07 2.05828e-07 -1.47503e-09
-3.15565e-07 2.18986e-07 -1.15625e-08
3.947e-07 9.5438e-07 7.26729e-07
3.01292e-07 9.79156e-07 7.17892e-07
-3.62586e-07 1.87056e-07 3.90611e-08
-3.58033e-07 1.95363e-07 4.69455e-08
-3.58828e-07 1.81497e-07 3.49683e-08
-7.06418e-09 2.9987e-07 1.49885e-07
-5.7566e-08 2.91403e-07 1.49354e-07
-3.5175e-08 2.88096e-07 1.42567e-07
-3.01913e-07 2.08398e-07 7.39164e-08
-3.00666e-07 2.14688e-07 7.56927e-08
-3.08326e-07 2.18621e-07 8.01173e-08
-7.92291e-08 -2.43873e-07 -1.19038e-08
-7.05384e-08 -2.49136e-07 -1.56101e-08
-3.88231e-07 3.60395e-07 3.62204e-09
2.7461e-07 2.52063e-07 -2.29225e-07
-3.70239e-07 3.75626e-07 -1.26294e-08
2.40091e-07 3.10259e-07 -2.37194e-07
2.37105e-07 3.14853e-07 -2.24874e-07
3.26373e-07 3.96773e-07 -6.33008e-08
3.32935e-07 3.93474e-07 -5.56569e-08
7.99967e-08 4.50801e-07 -7.52046e-08
1.26531e-07 4.32392e-07 -8.01193e-08
6.27787e-07 2.96521e-07 1.09641e-08
6.38293e-07 2.88053e-07 8.06409e-09
2.86969e-07 2.30634e-07 -2.16943e-07
3.19795e-07 2.2273e-07 -2.185e-07
4.79014e-07 2.38386e-07 -2.41758e-07
2.89876e-07 2.25766e-07 -2.2615e-07
1.53669e-07 4.33125e-07 -6.53174e-08
1.4864e-07 4.16903e-07 -7.10889e-08
1.6183e-07 4.15832e-07 -5.70693e-08
8.20985e-08 -2.26124e-07 1.40465e-07
8.27963e-08 -2.12923e-07 1.27319e-07
-4.4894e-07 5.13796e-07 -3.97455e-07
-2.95174e-07 1.55342e-07 2.641e-08
4.92971e-08 -2.23669e-07 1.39498e-07
-4.46738e-07 2.2053e-07 1.66129e-08
2.48683e-07 2.16986e-07 -1.49063e-07
2.35072e-07 2.24049e-07 -1.49807e-07
-4.45955e-07 2.19873e-07 1.51311e-08
-4.49099e-07 2.12556e-07 1.45352e-08
4.35713e-07 2.13634e-07 -1.18538e-07
4.44305e-07 2.06459e-07 -1.34263e-07
2.97173e-07 2.45408e-07 -8.81837e-08
4.35551e-07 2.0543e-07 -1.30649e-07
-5.36538e-07 1.19524e-07 7.90376e-08
-5.44692e-07 1.07909e-07 6.34721e-08
3.14635e-07 2.15326e-07 -1.10395e-07
3.43147e-07 2.26135e-07 -1.0708e-07
3.27884e-07 2.21853e-07 -1.16533e-07
1.20555e-08 4.52989e-07 -7.78159e-08
3.28019e-09 4.45449e-07 -8.61336e-08
6.86588e-08 4.43598e-07 -8.39946e-08
1.95603e-07 3.32418e-07 -1.68701e-08
1.89066e-07 3.37658e-07 -1.5754e-09
5.75696e-07 3.29137e-07 -2.91299e-08
5.66117e-07 3.13539e-07 -4.77432e-08
9.29586e-07 5.30171e-07 5.64978e-07
9.50709e-07 5.57885e-07 5.76434e-07
-4.35234e-07 3.89243e-07 -1.33387e-07
-4.35106e-07 3.82031e-07 -1.43035e-07
-4.28857e-07 3.62074e-07 -1.35887e-07
1.76393e-07 7.57795e-07 -4.97304e-07
2.96465e-06 -4.59872e-08 -1.25475e-07
2.94009e-06 -3.80519e-08 -1.50336e-07
-8.32501e-07 1.76938e-08 -1.21996e-08
2.36696e-07 3.81e-07 -5.8329e-08
2.3494e-07 3.68919e-07 -6.21042e-08
-4.40954e-07 1.98957e-07 -1.47688e-08
-2.14752e-07 1.7008e-07 5.28978e-08
3.01429e-06 -5.60544e-08 -1.7386e-07
-6.25942e-07 1.71633e-07 -1.08095e-07
2.13097e-07 3.76285e-07 -1.76578e-07
2.05605e-07 3.8481e-07 -1.63517e-07
-4.08082e-07 1.32778e-07 6.10234e-08
-4.19975e-07 1.32773e-07 6.21261e-08
-5.92709e-07 -2.26235e-07 1.25756e-07
-5.89021e-07 -2.37357e-07 1.286e-07
-6.24564e-07 1.66053e-07 -1.10135e-07
-2.48466e-07 4.18479e-07 -3.7436e-08
-4.04441e-07 3.72439e-07 -5.32713e-08
-4.37593e-07 3.54737e-07 -3.3455e-08
-2.35251e-07 4.07936e-07 -1.35913e-08
-1.5887e-08 4.44417e-07 -7.71548e-08
2.9912e-07 2.59312e-07 -7.3906e-08
1.45857e-07 3.78795e-07 5.37784e-08
1.6173e-07 3.83332e-07 4.53542e-08
-1.16012e-07 2.65697e-07 1.39185e-07
-1.49169e-08 4.61444e-07 -8.08918e-08
-3.25438e-07 7.68053e-07 -2.80274e-07
-3.3137e-07 7.84155e-07 -2.95106e-07
2.55103e-08 4.44584e-07 -8.11149e-08
-1.91434e-07 2.76099e-07 1.35275e-07
-7.91894e-07 1.24203e-07 -2.74924e-08
8.43359e-07 3.64916e-07 -3.81122e-07
8.71748e-07 3.44001e-07 -3.43345e-07
-4.48579e-07 2.33618e-07 -1.13253e-07
1.93724e-07 3.36338e-07 -3.92895e-08
-4.4564e-07 2.25576e-07 -1.00274e-07
-4.5055e-07 2.35758e-07 -1.06297e-07
2.02652e-07 4.10486e-07 -7.54394e-08
-5.6465e-07 -1.77359e-07 1.30612e-07
3.70407e-07 3.37836e-07 -7.28401e-08
3.82384e-07 3.34924e-07 -6.66278e-08
2.80234e-06 1.13204e-08 -6.21858e-08
2.85548e-06 -3.19538e-09 -9.7169e-08
-5.36084e-07 2.3951e-07 2.51445e-08
-5.46583e-07 2.45225e-07 2.68158e-08
6.49935e-07 3.64771e-07 5.37163e-08
1.85038e-06 3.25506e-07 -5.75158e-07
1.84098e-06 3.45921e-07 -5.82536e-07
6.57576e-07 3.84546e-07 7.87213e-08
2.83003e-06 1.13792e-09 -8.62915e-08
-4.26065e-07 1.23087e-07 -2.03055e-08
-4.11685e-07 -3.63615e-08 2.36711e-08
-4.03288e-07 -3.9706e-08 1.81831e-08
-1.83068e-07 1.84548e-07 6.30934e-08
-1.82865e-07 1.90363e-07 6.03508e-08
4.78164e-07 2.5403e-07 -9.16858e-08
4.71219e-07 2.63743e-07 -9.06766e-08
-4.25709e-07 1.2329e-07 -9.39563e-09
-4.15206e-07 1.25006e-07 -1.2865e-08
-3.82426e-07 1.97877e-07 6.92178e-09
-2.51955e-07 -2.54937e-07 1.76439e-07
2.15578e-06 3.05801e-07 4.37098e-07
2.19644e-06 3.22068e-07 5.06304e-07
-7.10898e-07 -4.29391e-07 1.33618e-07
-3.80676e-07 2.01796e-07 -1.20064e-09
-4.31613e-07 3.12649e-07 -1.43058e-07
-4.4139e-07 3.23387e-07 -1.49196e-07
-4.31804e-07 3.07602e-07 -1.47267e-07
-2.83762e-07 -1.28287e-07 2.92258e-08
-2.76819e-07 -1.30061e-07 2.16949e-08
-9.38746e-07 -4.87968e-07 -8.85386e-08
-2.8372e-07 -1.10291e-07 2.81848e-08
-2.11304e-07 1.81722e-07 6.00043e-08
-2.65013e-07 -2.27382e-07 3.33421e-08
-2.7253e-07 -2.12056e-07 3.40904e-08
-2.10479e-07 1.76499e-07 5.85156e-08
1.21802e-07 4.05876e-07 -7.32946e-08
-1.75676e-07 4.17636e-07 -2.85074e-08
-1.43947e-07 4.32708e-07 -2.82951e-08
8.66146e-08 3.85866e-07 -7.18792e-08
-2.57789e-07 1.64123e-07 3.93793e-08
-1.70606e-07 -2.41869e-07 -8.2406e-08
-1.72302e-07 -2.34036e-07 -7.85807e-08
-2.4121e-07 1.63157e-07 3.90823e-08
-2.46561e-07 1.77654e-07 4.76689e-08
1.3339e-07 -7.91754e-08 4.97552e-08
1.27116e-07 -7.30874e-08 3.24512e-08
-1.44872e-07 -8.024e-08 8.76923e-08
-1.24451e-07 -5.07333e-08 8.63106e-08
4.34456e-07 7.65142e-07 -7.38593e-07
4.29424e-07 7.37288e-07 -7.12497e-07
-1.53601e-07 2.74496e-07 1.42761e-07
-1.19845e-07 -5.12748e-08 7.93006e-08
-6.53079e-07 -7.00305e-08 8.2231e-08
-6.59618e-07 -6.40767e-08 8.21902e-08
1.10848e-06 -3.85863e-07 -7.66929e-07
-7.17882e-07 -2.91944e-07 2.99543e-08
-8.41157e-07 -4.27233e-07 -3.15221e-08
-8.27698e-07 -4.53104e-07 -3.96006e-08
1.04861e-06 -4.38133e-07 -8.00009e-07
1.00543e-06 -4.01329e-07 -7.64109e-07
-1.01421e-06 -2.01984e-07 -2.28224e-09
-9.96201e-07 -1.5411e-07 1.16126e-09
3.42626e-07 4.03547e-07 -6.78204e-08
7.35176e-07 6.03842e-07 4.57129e-07
7.08627e-07 6.04176e-07 4.38362e-07
2.51756e-07 -7.80439e-07 -8.35441e-07
1.64267e-07 -7.63755e-07 -7.87934e-07
7.1193e-07 2.3717e-07 -1.53705e-07
7.6819e-07 2.35973e-07 -8.449e-08
-1.25658e-07 3.10255e-07 1.35871e-07
-1.49528e-07 3.19626e-07 1.38882e-07
-1.45814e-07 3.14519e-07 1.26055e-07
1.32198e-07 2.98542e-07 9.7863e-08
1.13065e-07 3.02875e-07 1.05002e-07
1.62607e-08 4.2569e-07 -7.92624e-08
1.42325e-08 4.21516e-07 -8.15424e-08
3.86922e-08 4.37644e-07 -6.74848e-08
-8.64427e-09 4.46251e-07 -5.82081e-08
1.02187e-07 2.96058e-07 1.04246e-07
-2.31611e-07 -2.61856e-07 1.10808e-07
-2.32303e-07 -2.61878e-07 1.05664e-07
-2.08977e-07 -2.83166e-07 1.50434e-07
-2.04121e-07 -2.74318e-07 1.4295e-07
1.03995e-07 3.04366e-07 1.11403e-07
-1.00794e-07 3.11421e-07 1.53611e-07
-9.96856e-08 3.05044e-07 1.44743e-07
3.22935e-09 2.93425e-07 1.42172e-07
5.22337e-09 3.0478e-07 1.38759e-07
-4.6698e-07 -1.56348e-07 -1.83825e-08
-7.12911e-08 3.09517e-07 1.55647e-07
-2.76918e-08 -5.629e-07 -5.68396e-07
-1.04583e-07 -6.16375e-07 -5.95927e-07
-1.57331e-07 2.64118e-07 1.31052e-07
4.42858e-08 3.67433e-07 3.57423e-08
-1.0329e-06 -3.54935e-07 -9.90067e-08
-4.01011e-08 3.01372e-07 1.52874e-07
-5.60453e-07 1.97379e-07 -1.41768e-07
-5.78355e-07 1.83324e-07 -1.34516e-07
1.53427e-06 2.71907e-07 -7.89443e-08
-5.58305e-07 1.91794e-07 -1.41153e-07
-1.87985e-07 4.02199e-07 -6.65802e-09
-1.58743e-07 4.17323e-07 -8.40445e-09
-3.52024e-07 -4.24952e-08 9.90869e-09
-3.48574e-07 -4.27646e-08 1.58428e-08
3.05905e-07 8.97779e-07 8.38608e-07
2.60224e-07 9.37145e-07 8.41903e-07
2.01661e-07 3.23367e-07 -8.35524e-08
-4.0638e-07 1.23343e-07 3.58221e-08
-4.0881e-07 1.22381e-07 3.56849e-08
-8.16567e-07 -3.69535e-07 5.74509e-08
-8.17382e-07 -3.40386e-07 5.42598e-08
-4.10426e-07 1.20124e-07 2.15997e-08
-4.11626e-07 8.32949e-07 1.96756e-07
-8.81641e-07 9.17562e-08 -3.34689e-08
-8.92602e-07 1.32021e-07 -4.19235e-08
-4.40937e-07 8.32942e-07 1.76066e-07
4.19621e-07 -1.18115e-07 -8.70233e-08
4.47899e-07 -1.15813e-07 -7.24173e-08
2.55444e-06 1.47338e-07 9.88267e-08
2.59049e-06 1.36342e-07 5.70675e-08
-5.02405e-07 6.45895e-07 -8.11333e-09
8.53687e-07 3.10194e-07 1.9317e-07
-1.8557e-07 7.90002e-07 -3.33207e-07
-1.85675e-07 7.94809e-07 -3.07097e-07
-5.2264e-07 6.90285e-07 2.63295e-08
-4.97155e-07 6.49543e-07 1.32798e-08
7.68589e-09 4.4854e-07 -8.10609e-08
-3.40839e-08 4.48917e-07 -4.73944e-08
-6.7305e-07 -1.52712e-08 -4.2017e-08
-6.74612e-07 -1.47129e-08 -3.85853e-08
2.18545e-07 2.6732e-07 -1.49313e-07
3.33128e-07 2.39277e-07 -9.82691e-08
3.40376e-07 2.27877e-07 -1.08055e-07
3.56697e-07 2.35272e-07 -9.79394e-08
-8.41508e-07 2.87275e-07 2.89167e-08
4.05319e-07 3.68042e-07 -6.84193e-08
4.43398e-07 1.99911e-07 -1.46155e-07
4.42367e-07 2.02515e-07 -1.45254e-07
3.74122e-07 3.68444e-07 -6.91643e-08
-2.84717e-08 -1.81639e-07 -4.40035e-09
-4.34154e-08 -2.05345e-07 -2.7757e-08
3.56756e-07 3.85911e-07 -6.7173e-08
6.08308e-07 4.49528e-07 -4.38512e-07
-9.83611e-07 -4.76578e-07 -1.19875e-07
-9.85289e-07 -4.94829e-07 -1.24639e-07
5.95729e-07 4.24081e-07 -4.08367e-07
6.84571e-07 4.17768e-07 -4.29931e-07
7.228e-07 3.94028e-07 -3.97874e-07
5.73859e-07 4.44175e-07 -4.21492e-07
-8.54584e-07 -2.6055e-07 7.02598e-08
-8.59317e-07 -2.14369e-07 5.74644e-08
5.82397e-08 3.38525e-07 4.69702e-08
-5.93898e-08 -2.32185e-07 -5.43419e-08
-4.34413e-08 -2.30454e-07 -5.78064e-08