# vtk DataFile Version 2.0
S, Created by Mohamad Ibrahim Cheikh
ASCII
DATASET UNSTRUCTURED_GRID
POINTS 23916 double
-140.742 67.0625 102.477
-143.668 64.8986 103.369
-297.158 -61.0037 53.7736
-294.192 -60.2393 56.5596
-350.289 23.2724 43.126
3.03621 4.43505 131.921
-313.087 61.4546 40.5743
-308.024 -56.1166 51.5646
-312.916 59.4208 43.6489
-339.069 -30.3639 49.2589
-335.891 -29.8093 52.1773
-341.836 -26.5577 49.1171
-340.507 -23.3857 51.7874
64.4175 40.3707 -123.637
67.931 42.6978 -122.621
-329.22 -45.6428 45.5083
-331.283 -42.5066 46.6973
-19.0232 18.3889 130.543
-358.643 4.51863 -40.6936
-359.949 1.24316 -39.4966
-340.791 18.3002 53.5741
-155.369 -104.159 60.1614
-155.455 -102.379 63.1183
-309.575 -69.6477 -28.9803
-312.228 -69.2761 -26.2588
-158.907 71.1421 -96.2873
-155.366 72.8614 -95.7074
-341.358 21.4763 51.9284
-284.52 30.5349 81.1214
-253.005 82.64 52.5134
-249.028 84.2052 52.3544
-164.969 62.0166 101.223
-162.748 64.311 100.226
-287.116 27.4346 81.1094
-334.883 -2.63605 60.7195
-332.521 0.361024 62.3437
-248.879 98.4123 12.4735
-246.458 -15.296 98.7594
-249.433 -17.3175 97.5031
-210.397 -94.6159 -55.2467
-214.195 -94.8649 -52.9868
-209.978 -87.7046 65.832
-213.187 -88.2288 63.8386
-202.023 -94.0594 59.8334
-217.612 6.56391 107.625
-216.071 10.3367 107.709
-205.427 -94.3992 57.8463
-190.998 108.627 34.0287
-191.722 107.484 37.027
-283.948 -0.953969 86.9021
-282.353 2.64484 87.5013
321.18 20.5839 -66.1119
322.997 17.1637 -66.0044
-262.339 24.2056 91.7179
-264.421 20.9936 91.7775
12.6001 6.9314 -131.744
-313.517 -55.8725 -47.6261
-311.309 -55.3587 -49.9428
-321.826 -56.0064 -40.0866
190.132 75.5 85.4275
-319.057 -56.17 -42.4949
30.502 94.8499 -91.1789
-241.873 100.212 -14.803
-245.64 99.025 -15.1892
-319.724 -57.1451 40.5366
-322.024 -54.8428 41.476
-26.6039 10.9319 -131.217
-135.345 119.066 31.6944
-138.371 118.135 33.5251
11.7369 13.6963 131.223
8.01441 15.8086 131.02
-242.399 31.2359 96.2011
-245.258 28.8202 96.0677
-311.745 43.6083 60.1987
-245.877 31.1938 -95.128
-14.8616 20.1032 130.357
-248.053 33.9237 -93.488
-242.821 -17.1177 99.5603
-242.441 -21.021 98.9241
301.868 -12.936 78.104
300.604 -9.67725 79.1657
-299.756 59.7178 53.4506
-303.549 58.8761 51.7363
-116.768 117.047 45.3276
-114.512 116.129 48.2972
-243.938 74.3459 67.907
-248.233 72.7153 67.7672
-314.639 40.3754 60.6093
-350.826 19.318 44.5222
-361.45 13.8992 -35.1537
-363.837 13.7747 -32.0504
-186.05 -85.0344 -77.1703
-187.302 -82.4355 -79.5818
10.0003 -9.11007 131.639
-339.55 34.5253 -46.0054
-238.532 -64.6097 -79.269
-240.817 -62.1689 -80.3675
-203.744 82.356 74.5603
-200.169 82.0333 76.0857
-188.443 -77.7352 -83.8668
-165.33 93.3339 73.2547
-345.191 32.5442 -42.1475
-252.166 85.7752 47.7657
-254.845 83.82 49.4656
-299.164 22.1915 -77.2922
62.3222 -7.57951 -129.965
-301.321 19.1731 -77.0741
-349.043 -32.5694 38.0449
-346.315 -34.9063 39.012
-325.129 61.1601 -27.23
31.2803 18.1873 -130.282
-321.757 63.1165 -27.6649
-342.324 34.9303 -43.0903
-203.721 106.772 -30.7022
-200.084 107.832 -29.9161
-198.245 109.176 -26.3235
-201.951 108.812 -24.3041
-166.196 -118 -10.8799
-169.452 -116.737 -16.7655
-348.212 34.4642 37.301
-291.883 -75.9557 -34.9879
-288.43 -77.3795 -35.3727
-169.19 -117.299 -12.6634
35.956 21.6006 129.611
-26.163 8.29099 131.421
-22.9023 9.99472 131.377
-248.588 -24.5968 96.194
70.0738 -14.4689 128.893
-23.5366 0.0266048 131.743
-250.616 -21.1278 96.3739
-264.029 41.232 84.7887
-290.27 -70.3051 46.5359
-259.886 43.1758 85.3862
-21.6343 -3.07973 131.747
-258.409 46.0296 84.4391
-25.8804 5.08707 131.591
-260.955 84.4121 -44.2873
-261.08 86.1281 -40.7523
-195.824 58.9092 96.2231
-199.102 58.2435 95.8037
-253.5 87.1096 44.3651
-258.539 -83.4011 47.7987
-293.366 -65.7873 50.5889
-293.488 -68.225 47.1566
-284.859 17.072 -84.8408
-286.501 13.793 -84.7602
300.16 55.9621 -57.1116
302.579 53.8623 -57.5663
303.208 51.1949 -59.5605
-37.6628 -20.7194 -129.696
-271.933 90.8318 -10.9604
-214.221 91.8121 58.1047
-216.709 90.0411 59.7239
-82.6917 120.702 -44.9194
-360.968 24.562 -29.4663
-273.926 90.4346 -7.67691
-375.817 4.95087 10.3737
-376.604 2.40727 7.33275
-271.588 91.4593 -5.35611
-353.722 44.3098 -11.9274
-351.279 46.9005 -10.8076
175.644 95.3258 67.5272
174.176 97.656 64.5995
169.879 98.4032 64.8662
-360.232 -9.72697 -37.973
-357.509 -10.6693 -40.7671
-90.2379 118.46 -48.9324
-330.183 60.2316 21.1825
-332.466 58.4283 21.8502
-333.805 56.3285 24.6818
-332.594 55.7685 27.7624
119.656 -119.274 -38.0106
-329.422 -55.7492 -32.0942
-332.687 -54.0082 -30.9262
117.088 -118.667 -40.7869
113.281 -119.149 -40.6981
-195.77 86.8401 72.0455
-195.957 84.5309 74.6813
-351.281 -37.0851 30.6757
-348.43 -40.1222 30.8342
-87.0509 119.707 -46.5462
-313.595 -63.825 36.1991
-260.632 -30.3199 -90.4883
-310.05 -64.8282 38.1047
-307.23 -67.3989 36.4022
-327.433 -3.63135 -65.4582
-329.45 -6.08108 -64.0213
-176.355 -104.811 -51.292
-328.614 -9.98735 -64.0572
-235.149 -94.615 41.2579
-286.093 63.0981 58.4961
-288.898 60.7638 59.2746
-326.934 -35.2723 -55.622
-327.263 -38.1856 -53.4177
-324.425 -43.9031 -51.0935
-321.905 -46.9235 -50.3547
-306.323 -35.8832 -68.1784
-310.403 -34.4715 -66.6301
-305.153 43.2928 64.4142
-306.412 39.2614 66.2402
-205.602 106.303 30.794
-209.145 105.396 30.9907
-280.792 10.7595 -87.4945
-279.549 7.18417 -88.3443
-281.972 23.6467 -84.4429
-280.156 26.6016 -84.3038
-187.414 84.7034 -77.1302
-186.568 82.2451 -79.9889
-287.875 -56.1401 -64.2357
-283.989 -57.3642 -65.2638
-181.466 -105.953 -46.5429
-161.107 -118.049 17.626
-253.773 -60.7827 -76.4517
-298.652 80.3674 -6.7162
-262.801 64.3113 69.5161
-300.206 79.2391 -10.5481
-180.424 -104.714 -49.7349
-176.276 -114.937 20.2293
59.9343 6.02015 130.184
56.8737 8.0067 130.245
-173.294 -116.008 17.0106
-67.3772 -117.202 -55.9627
-231.69 62.2023 83.563
-230.584 65.5283 81.3666
-233.655 -83.4166 -61.4949
-231.164 -82.1775 -64.2541
-345.038 28.0255 45.4214
-235.302 60.3798 83.664
59.2199 76.3253 -105.684
-14.072 -15.2496 131.024
-224.089 67.4623 -82.0053
-222.481 65.3864 -84.1936
-359.632 14.655 37.0761
34.0908 -16.1069 -130.469
55.7171 78.3408 -104.435
-229.36 -46.7689 93.7874
-229.913 -49.5997 92.1533
221.711 -103.31 27.0705
217.661 -104.436 26.7725
216.228 -105.573 23.5417
-76.1696 124.243 -35.7389
-272.58 87.0135 -27.4974
-274.759 85.2638 -30.1909
-76.6829 122.978 -39.7565
-317.763 -3.82752 -71.0433
337.236 25.5992 53.3377
-41.2758 8.76778 -130.914
-45.216 9.68968 -130.69
-295.265 73.3927 36.9304
333.748 21.0811 57.8133
336.676 22.6038 55.0956
-277.555 -17.5852 87.6533
-274.518 -20.0429 88.2944
-211.079 -3.45512 109.349
-212.064 -6.81259 108.958
-93.6918 107.784 68.7885
-96.4525 108.695 66.8611
-376.769 -6.33834 -2.04239
-299.821 -72.2955 -34.522
-297.988 -74.6887 -31.2121
-228.883 -91.2572 51.7912
-375.758 -11.5642 1.96089
-376.107 -10.0962 -1.8625
-268.439 -92.0936 10.9776
-276.805 -89.3203 8.07098
-271.242 -90.8374 12.8484
-275.011 -89.6296 11.4446
10.0502 15.2047 -131.074
-351.363 -16.2871 45.2102
-251.977 46.2935 86.646
-248.304 48.1817 86.9142
-346.06 52.2841 -5.33011
-348.585 50.3734 -3.13282
-249.802 -66.2103 -73.4874
0.849458 1.9845 131.985
-351.465 -12.9421 -46.1841
-352.352 -8.66225 -46.3571
-318.298 64.4443 29.4458
-151.664 81.8958 -88.8872
-250.356 -37.7275 -91.252
-246.879 -38.1338 -92.2377
-146.329 86.4312 -85.628
-148.135 83.8316 -87.8045
-301.047 -69.3776 38.9226
-303.992 -67.4111 39.5702
-297.773 -69.7224 41.3161
-329.815 -20.5039 60.7115
-331.191 -26.6116 57.33
-329.275 -23.9575 59.7984
-309.341 -60.665 45.0352
-312.451 -59.0689 44.5252
-314.725 -59.5183 41.8884
337.322 -15.8439 -56.9392
339.946 -13.5684 -55.601
-360.25 -36.0018 -15.4554
-297.481 76.267 27.8006
-362.545 -32.6412 -16.3217
-292.719 71.4033 42.8391
-296.207 69.3279 43.3098
-293.611 27.9041 -78.0446
-291.19 29.8226 -78.4446
-334.861 8.61052 -60.1791
-332.762 11.6684 -61.0827
-268.154 83.1711 -41.2677
-264.995 85.1527 -39.6949
-300.122 77.1096 21.2221
-295.166 80.3715 17.2598
-258.415 94.4592 18.0485
-296.947 78.7561 20.6358
-344.729 19.1519 -50.0782
-347.887 18.7519 -47.4883
-348.336 22.1969 -45.5615
297.476 47.7985 65.6139
300.963 46.8646 64.3284
-44.5717 83.1176 101.352
-285.399 -65.7363 55.9504
302.103 43.2881 66.154
-282.595 -54.7002 -68.2247
-319.312 68.0804 17.4931
-321.423 66.079 20.2229
-279.742 -54.1609 -70.0696
-276.885 -56.533 -69.5835
-301.577 77.3406 -17.5375
-297.857 79.1897 -17.0624
-338.569 55.9749 -16.0224
-296.784 80.3796 -13.3935
-136.908 -104.59 64.7311
-133.928 -105.802 63.5133
-326.466 65.6071 -8.42809
-325.415 65.2256 -14.3119
-327.344 64.5554 -11.7337
-334.43 1.92125 -61.0516
-332.192 -0.72622 -62.5546
-332.778 5.68647 -61.9155
-322.157 36.9632 57.89
-322.547 33.0358 59.9614
-284.857 67.8285 -53.7484
-288.439 67.2847 -52.0667
-183.448 105.054 -47.6172
-180.66 104.45 -50.1824
-165.719 -49.8667 -107.587
-166.756 -53.0074 -105.876
-170.647 -54.2015 -104.503
-162.799 77.0965 90.7486
50.7608 130.022 -14.2448
46.974 130.293 -13.323
-22.7423 3.01818 131.725
-286.976 19.7391 -83.376
-290.115 19.1824 -82.1675
-250.013 -62.9613 -76.2048
-282.433 -54.8816 68.1611
53.7649 130.142 -11.538
-117.759 -93.4623 -83.6124
-295.337 58.3248 57.8218
-296.431 55.5049 59.8756
-215.92 -94.2684 53.1938
-216.85 -95.7398 50.0073
12.759 -71.8082 -110.669
16.2974 -71.2328 -110.984
-118.936 -95.9926 -80.4833
-368.434 -16.3963 -23.1518
-340.731 -40.0848 -40.0418
-338.638 -44.0339 -38.0157
-370.42 -14.3127 -20.5021
-348.492 1.32636 -50.532
-339.53 53.5332 -21.0792
-308.191 14.3633 74.7601
-308.445 17.8731 73.8696
-327.274 -35.8893 54.9788
-345.147 1.00146 -53.2757
-134.33 45.8198 114.522
-130.837 47.5175 114.325
-343.079 3.8807 -54.7585
-340.205 -38.6522 41.9524
-46.4684 1.91657 130.981
-187.529 107.976 38.2046
-184.095 109.112 37.0049
-203.986 -76.4059 -80.5714
-319.288 39.8754 57.9034
-210.422 -75.5306 -79.3613
-206.964 -74.4035 -81.5102
-342.091 22.7835 -50.7674
3.85715 -83.7117 -102.052
-326.909 44.571 -48.5116
-326.267 47.7788 -45.9178
26.3957 129.304 -24.8824
31.9609 130.017 -19.8597
-311.266 -74.5159 -3.08135
[...]
POINT_DATA 23916
VECTORS F double
1.74853e-07 1.11376e-07 -4.34856e-08
1.71121e-07 1.14835e-07 -4.29794e-08
-1.60475e-07 1.19852e-07 2.73953e-08
-1.60007e-07 1.21983e-07 2.80245e-08
8.83539e-08 1.73735e-07 -5.8909e-09
-5.33881e-08 1.5769e-08 -3.79669e-10
1.96006e-07 1.30944e-07 -1.31601e-08
-1.52479e-07 1.26116e-07 2.57346e-08
1.87787e-07 1.3004e-07 -1.22082e-08
-9.16889e-08 1.566e-07 1.92607e-08
-9.03939e-08 1.57995e-07 1.90206e-08
-8.2995e-08 1.63968e-07 1.79407e-08
-7.09609e-08 1.61893e-07 1.59834e-08
3.97645e-08 -3.4548e-08 -8.74429e-09
4.37221e-08 -3.87676e-08 -1.05338e-08
-1.34927e-07 1.4023e-07 2.11396e-08
-1.27026e-07 1.45944e-07 2.25176e-08
-2.3816e-08 4.54e-08 -6.82011e-09
2.50449e-08 1.86015e-07 -6.36906e-09
1.20279e-08 1.89703e-07 -7.44986e-09
6.75282e-08 1.67517e-07 -4.63081e-09
-2.50761e-07 6.09023e-08 2.61566e-08
-2.45927e-07 6.19912e-08 2.63948e-08
-1.89801e-07 1.12623e-07 -2.24347e-08
-1.88911e-07 1.11703e-07 -1.96887e-08
1.97757e-07 1.0248e-07 3.57603e-08
1.98858e-07 1.01748e-07 3.79379e-08
7.94498e-08 1.69641e-07 -6.21693e-09
9.58014e-08 1.39535e-07 -1.13847e-08
2.42032e-07 1.00555e-07 -1.54774e-08
2.43372e-07 9.9116e-08 -1.76873e-08
1.64707e-07 1.21079e-07 -4.13181e-08
1.69059e-07 1.18116e-07 -4.21804e-08
8.72822e-08 1.45168e-07 -1.1275e-08
-2.8403e-09 1.70024e-07 5.46362e-09
6.26971e-09 1.65379e-07 3.13664e-09
2.89318e-07 9.01984e-08 -4.89248e-09
-3.70125e-08 1.41452e-07 1.05998e-08
-3.79722e-08 1.39727e-07 1.29239e-08
-2.25364e-07 8.29533e-08 -3.69894e-08
-2.24831e-07 8.13044e-08 -3.42912e-08
-2.15805e-07 8.84484e-08 3.35625e-08
-2.1529e-07 8.66982e-08 3.18001e-08
-2.30787e-07 7.99583e-08 3.0294e-08
1.76708e-08 1.4482e-07 -4.45795e-09
3.35926e-08 1.39888e-07 -5.17438e-09
-2.3074e-07 7.88274e-08 2.83166e-08
3.1492e-07 7.21256e-08 -1.38318e-08
3.08512e-07 7.23224e-08 -1.43658e-08
2.93386e-09 1.50439e-07 2.82516e-09
1.47176e-08 1.46506e-07 1.38608e-09
3.18435e-08 -9.33339e-08 -1.01195e-08
2.61526e-08 -9.68438e-08 -9.51461e-09
7.3969e-08 1.37481e-07 -1.03801e-08
6.32052e-08 1.43419e-07 -1.05117e-08
-3.507e-08 1.59109e-08 4.26474e-10
-1.49831e-07 1.26937e-07 -2.81614e-08
-1.49689e-07 1.28949e-07 -2.86972e-08
-1.56399e-07 1.28736e-07 -2.61363e-08
1.0723e-07 -6.77618e-08 3.06684e-08
-1.56708e-07 1.29967e-07 -2.7741e-08
1.93531e-07 1.90949e-08 2.779e-08
2.91789e-07 8.7113e-08 6.02017e-09
2.90064e-07 8.91225e-08 6.7159e-09
-1.61858e-07 1.26437e-07 2.19425e-08
-1.57846e-07 1.3108e-07 2.32813e-08
-2.34534e-08 6.32971e-08 5.85554e-09
3.51489e-07 5.30017e-08 -1.53473e-08
3.46798e-07 5.52052e-08 -1.9288e-08
-3.23901e-08 9.84867e-09 -6.73245e-10
-3.01912e-08 1.47721e-08 -1.55626e-09
8.81792e-08 1.33509e-07 -1.6147e-08
8.48727e-08 1.35593e-07 -1.41499e-08
1.40157e-07 1.38941e-07 -1.17874e-08
9.76347e-08 1.32871e-07 1.26741e-08
-2.19556e-08 4.25539e-08 -6.86899e-09
1.02071e-07 1.35109e-07 1.58692e-08
-3.69568e-08 1.40989e-07 1.32055e-08
-5.00076e-08 1.38658e-07 1.44596e-08
-3.7161e-08 -9.17389e-08 2.38989e-09
-3.14763e-08 -8.95333e-08 3.68836e-09
1.85558e-07 1.28042e-07 -1.56504e-08
1.83848e-07 1.27583e-07 -1.31266e-08
3.478e-07 5.33292e-08 -2.80162e-08
3.45664e-07 5.26264e-08 -2.61989e-08
2.12858e-07 1.04189e-07 -2.04529e-08
2.11387e-07 1.05166e-07 -1.8045e-08
1.31669e-07 1.44935e-07 -1.28646e-08
7.19711e-08 1.74656e-07 -6.34919e-09
5.9952e-08 1.91472e-07 2.35069e-10
5.89184e-08 1.917e-07 5.01795e-10
-2.05119e-07 8.97773e-08 -3.83817e-08
-1.97274e-07 9.33919e-08 -3.98963e-08
-7.99125e-08 6.99506e-09 1.22735e-09
1.25323e-07 1.62107e-07 8.41086e-09
-1.52201e-07 1.13012e-07 -3.604e-08
-1.48291e-07 1.17336e-07 -3.63645e-08
2.3233e-07 9.79831e-08 -3.0501e-08
2.34249e-07 1.00202e-07 -3.25845e-08
-1.87048e-07 9.86895e-08 -4.00188e-08
2.66201e-07 8.95812e-08 -4.05799e-08
1.20936e-07 1.65881e-07 6.81994e-09
2.50993e-07 9.81205e-08 -1.39733e-08
2.45142e-07 1.01608e-07 -1.75506e-08
7.36243e-08 1.45863e-07 6.99019e-09
-5.73775e-08 -3.40786e-08 -1.38113e-09
6.5498e-08 1.50779e-07 6.15801e-09
-1.08391e-07 1.62683e-07 1.75211e-08
-1.11993e-07 1.57793e-07 1.9469e-08
2.03776e-07 1.36391e-07 8.45432e-09
-1.18754e-08 -3.12156e-09 -7.84886e-10
2.06649e-07 1.33456e-07 1.02216e-08
1.25713e-07 1.62876e-07 9.75962e-09
3.07897e-07 7.56867e-08 1.30856e-08
3.09356e-07 7.38192e-08 1.27675e-08
3.16362e-07 7.28315e-08 1.03704e-08
3.14221e-07 7.32707e-08 8.37926e-09
-2.749e-07 4.81226e-08 -7.80875e-09
-2.71239e-07 4.98727e-08 -1.16225e-08
1.24643e-07 1.66175e-07 -1.10814e-08
-1.97264e-07 1.0508e-07 -2.66413e-08
-1.97719e-07 1.0293e-07 -2.77802e-08
-2.73757e-07 4.95028e-08 -1.07416e-08
-1.40148e-08 -1.40784e-08 2.82228e-09
-4.45358e-08 4.90718e-08 -4.18127e-09
-4.27563e-08 4.6841e-08 -4.47603e-09
-5.7633e-08 1.3636e-07 1.66328e-08
-7.58175e-08 -4.00479e-08 5.50875e-10
-6.22595e-08 4.39825e-08 -1.37066e-09
-5.00209e-08 1.4186e-07 1.51742e-08
1.20773e-07 1.2737e-07 -1.58948e-08
-1.82566e-07 1.09667e-07 2.62621e-08
1.2162e-07 1.28837e-07 -1.98266e-08
-6.8946e-08 3.92407e-08 -4.68818e-10
1.32573e-07 1.24646e-07 -1.82755e-08
-5.2901e-08 4.79214e-08 -3.12633e-09
2.48869e-07 1.00899e-07 1.27806e-08
2.55736e-07 1.01365e-07 1.36432e-08
1.64376e-07 1.23335e-07 -3.45516e-08
1.6353e-07 1.21555e-07 -3.22903e-08
2.55816e-07 9.93721e-08 -1.6155e-08
-2.09097e-07 9.54305e-08 2.80438e-08
-1.7239e-07 1.14588e-07 2.66203e-08
-1.81075e-07 1.1368e-07 2.64961e-08
5.96495e-08 1.42822e-07 4.219e-09
4.77935e-08 1.47338e-07 4.19768e-09
9.07567e-08 -7.81833e-08 -1.82119e-08
8.90486e-08 -8.07455e-08 -1.82459e-08
8.30069e-08 -8.21994e-08 -1.8919e-08
-8.57325e-08 6.00243e-08 -6.54106e-09
2.71197e-07 9.98803e-08 3.95727e-09
2.62491e-07 8.72614e-08 -1.94008e-08
2.58166e-07 8.99939e-08 -2.09892e-08
3.5832e-07 3.93708e-08 2.50343e-08
1.00725e-07 1.8483e-07 2.99938e-09
2.6968e-07 1.00329e-07 3.7789e-09
2.21643e-08 2.09741e-07 -1.78572e-09
1.08269e-08 2.10568e-07 -1.04043e-09
2.73021e-07 9.93875e-08 2.20042e-09
1.67237e-07 1.64789e-07 4.97175e-09
1.73979e-07 1.6021e-07 2.92079e-09
1.5325e-07 -5.92959e-08 3.49033e-08
1.61287e-07 -5.66719e-08 3.24305e-08
1.61024e-07 -5.69273e-08 3.47299e-08
-3.08993e-08 1.852e-07 -1.15525e-08
-3.19736e-08 1.84189e-07 -1.38765e-08
3.48376e-07 4.49693e-08 3.02096e-08
2.02152e-07 1.37929e-07 -6.41071e-09
1.98282e-07 1.40837e-07 -7.22923e-09
1.90633e-07 1.42114e-07 -8.68128e-09
1.88941e-07 1.41476e-07 -7.06953e-09
-2.25896e-07 -3.00373e-08 7.19234e-09
-1.61784e-07 1.30962e-07 -2.41818e-08
-1.60462e-07 1.33505e-07 -2.18119e-08
-2.26776e-07 -2.99349e-08 7.39079e-09
-2.27358e-07 -2.90776e-08 7.65012e-09
2.47316e-07 9.59554e-08 -3.33827e-08
2.37806e-07 9.63071e-08 -3.26141e-08
-1.26939e-07 1.59469e-07 1.48196e-08
-1.32324e-07 1.52929e-07 1.59273e-08
3.56303e-07 4.12422e-08 2.44833e-08
-1.77547e-07 1.1822e-07 2.01313e-08
-7.07225e-08 1.36859e-07 -2.09181e-08
-1.78005e-07 1.17946e-07 2.33367e-08
-1.8239e-07 1.13172e-07 2.1075e-08
-6.86731e-10 1.61805e-07 -8.55581e-09
-7.37042e-09 1.64891e-07 -1.10188e-08
-2.47808e-07 6.73107e-08 -3.32303e-08
-2.10807e-08 1.61263e-07 -1.1903e-08
-2.2935e-07 8.06562e-08 2.49273e-08
1.90577e-07 1.20954e-07 -1.6355e-08
1.85816e-07 1.25016e-07 -1.72777e-08
-9.73333e-08 1.50393e-07 -2.53277e-08
-1.08862e-07 1.50026e-07 -2.55923e-08
-1.23799e-07 1.43805e-07 -2.73274e-08
-1.29602e-07 1.37751e-07 -2.69288e-08
-8.99475e-08 1.44808e-07 -2.67365e-08
-8.95937e-08 1.45566e-07 -2.42096e-08
1.39253e-07 1.38191e-07 -1.21118e-08
1.22834e-07 1.4109e-07 -1.40599e-08
3.06607e-07 7.59525e-08 -1.15637e-08
3.05614e-07 7.70043e-08 -9.37156e-09
4.05317e-08 1.46814e-07 2.12871e-09
3.13443e-08 1.4351e-07 -4.72831e-10
7.96548e-08 1.43208e-07 7.53836e-09
8.90471e-08 1.39012e-07 7.63498e-09
2.37259e-07 9.26064e-08 3.11177e-08
2.32568e-07 9.2686e-08 2.88882e-08
-1.42478e-07 1.2612e-07 -3.20512e-08
-1.42458e-07 1.25183e-07 -3.41371e-08
-2.50024e-07 6.60609e-08 -3.10383e-08
-2.751e-07 4.69606e-08 6.66445e-09
-1.47648e-07 1.18632e-07 -3.43147e-08
2.49692e-07 1.13852e-07 3.00438e-09
1.85065e-07 1.17035e-07 -2.26167e-08
2.45713e-07 1.14444e-07 3.53961e-09
-2.47716e-07 6.68923e-08 -3.08164e-08
-2.70067e-07 5.21997e-08 8.46273e-09
-3.92553e-08 -3.41716e-08 3.79283e-09
-3.80822e-08 -3.13603e-08 3.9638e-09
-2.72771e-07 5.06584e-08 5.26643e-09
-2.65066e-07 2.71665e-08 -1.78233e-08
1.754e-07 1.11962e-07 -2.38012e-08
1.89743e-07 1.09386e-07 -2.22613e-08
-1.96805e-07 9.54641e-08 -3.79447e-08
-1.96467e-07 9.75321e-08 -3.8202e-08
1.01025e-07 1.68434e-07 -9.96886e-09
1.73491e-07 1.12924e-07 -2.1758e-08
1.26524e-07 -2.6898e-08 -1.07458e-08
-9.25718e-08 2.88758e-08 2.14357e-09
1.944e-07 1.09167e-07 2.47689e-08
1.89498e-07 1.0739e-07 2.2094e-08
6.03017e-08 1.85231e-07 -1.60333e-09
-7.81608e-08 -9.42922e-09 -1.33631e-09
1.3042e-07 -2.1259e-08 -7.42846e-09
-1.16179e-07 1.25855e-07 2.79752e-08
-1.25861e-07 1.25966e-07 2.93542e-08
-1.86148e-07 -5.00722e-08 -4.43875e-09
-1.87013e-07 -4.8864e-08 -4.46739e-09
-1.90079e-07 -4.84903e-08 -3.70864e-09
3.78502e-07 3.43586e-08 2.0681e-08
2.60671e-07 1.02923e-07 9.33175e-09
2.54936e-07 1.04695e-07 1.1622e-08
3.71208e-07 3.48922e-08 2.0272e-08
-1.64662e-10 1.56833e-07 -8.35943e-09
4.14274e-08 -9.64583e-08 1.42266e-08
-2.14473e-08 7.88576e-08 6.10922e-09
-2.13005e-08 8.24243e-08 7.01336e-09
2.24361e-07 1.15579e-07 -1.00754e-08
3.17783e-08 -9.57621e-08 1.2459e-08
3.39683e-08 -9.58155e-08 1.38967e-08
-4.34749e-08 1.44424e-07 1.21204e-08
-4.53178e-08 1.42065e-07 1.49987e-08
-6.32016e-09 1.38811e-07 2.89242e-09
-1.84085e-08 1.40972e-07 4.42785e-09
3.15753e-07 6.89706e-08 -5.54166e-08
3.12563e-07 6.68482e-08 -5.34706e-08
-2.84924e-08 2.08311e-07 -2.96938e-09
-1.89231e-07 1.09089e-07 -2.72438e-08
-1.96942e-07 1.06112e-07 -2.37221e-08
-2.20426e-07 8.45762e-08 2.97611e-08
-5.13295e-08 2.03977e-07 -1.29043e-09
-4.47513e-08 2.04593e-07 -2.66236e-09
-2.29948e-07 8.25568e-08 4.16204e-09
-2.25237e-07 8.5744e-08 3.16596e-09
-2.27892e-07 8.44298e-08 7.89843e-09
-2.27569e-07 8.62201e-08 5.73954e-09
-1.81577e-08 2.1141e-08 2.2819e-09
-5.21811e-08 1.75675e-07 1.36371e-08
1.34118e-07 1.25129e-07 -1.91026e-08
1.35937e-07 1.2395e-07 -2.11658e-08
1.89494e-07 1.53801e-07 2.40327e-09
1.84184e-07 1.56016e-07 -4.68523e-10
-1.60228e-07 1.13767e-07 -3.58186e-08
-5.75273e-08 1.86357e-08 -2.34857e-10
-3.83998e-08 1.75852e-07 -1.35015e-08
-2.18261e-08 1.80358e-07 -1.33911e-08
2.09276e-07 1.30319e-07 -8.25051e-09
2.30089e-07 9.4318e-08 3.88343e-08
-8.96677e-08 1.31364e-07 -2.41926e-08
-8.91873e-08 1.34219e-07 -2.62643e-08
2.43763e-07 8.85083e-08 3.83385e-08
2.3066e-07 9.35341e-08 4.16586e-08
-1.84852e-07 1.10488e-07 2.1896e-08
-1.83014e-07 1.14573e-07 2.30506e-08
-1.85344e-07 1.11353e-07 2.43686e-08
-5.72562e-08 1.59604e-07 1.58214e-08
-7.80849e-08 1.57552e-07 1.7906e-08
-7.07431e-08 1.56521e-07 1.50166e-08
-1.65426e-07 1.21618e-07 2.471e-08
-1.64875e-07 1.24066e-07 2.29394e-08
-1.65626e-07 1.23094e-07 2.25467e-08
-3.34531e-08 -9.90912e-08 3.30922e-09
-3.05758e-08 -1.00582e-07 1.65752e-09
-1.28921e-07 1.63005e-07 -1.17957e-08
2.35742e-07 1.15486e-07 -7.98015e-09
-1.19987e-07 1.7002e-07 -1.37132e-08
2.17464e-07 1.16539e-07 -1.23218e-08
2.14231e-07 1.20222e-07 -1.30613e-08
9.31272e-08 1.44426e-07 8.74412e-09
9.54398e-08 1.43445e-07 1.11598e-08
3.69464e-08 1.70064e-07 -8.36929e-10
4.71289e-08 1.6423e-07 -6.12567e-11
2.49277e-07 1.05245e-07 1.38011e-08
2.53908e-07 1.01801e-07 1.08583e-08
2.40065e-07 1.16046e-07 -5.99509e-09
2.48528e-07 1.1263e-07 -4.12103e-09
2.7901e-07 9.47531e-08 -6.81678e-09
2.42346e-07 1.13477e-07 -6.12748e-09
7.56214e-08 1.72992e-07 2.42588e-09
7.40933e-08 1.729e-07 1.81965e-09
8.6792e-08 1.74334e-07 3.69294e-09
7.10456e-08 -8.17457e-08 2.01153e-08
7.10499e-08 -8.08972e-08 1.82384e-08
1.74137e-07 8.96269e-08 -6.41261e-08
-1.70953e-07 1.14264e-07 2.74865e-08
6.30521e-08 -8.34117e-08 1.93284e-08
-1.34315e-07 1.24866e-07 -3.19994e-08
2.21801e-07 1.28217e-07 -3.31881e-09
2.15193e-07 1.30044e-07 -6.17689e-09
-1.34623e-07 1.2824e-07 -3.33226e-08
-1.37676e-07 1.23232e-07 -3.30478e-08
2.41542e-07 1.16774e-07 6.44975e-09
2.44198e-07 1.13789e-07 6.19998e-09
1.94126e-07 1.45598e-07 6.43308e-09
2.49035e-07 1.13523e-07 5.69009e-09
-2.51872e-07 5.61623e-08 2.55242e-08
-2.52993e-07 5.33843e-08 2.3615e-08
2.18279e-07 1.3343e-07 3.49552e-09
2.16238e-07 1.33037e-07 4.35248e-09
2.14074e-07 1.33572e-07 3.69414e-09
1.52219e-08 1.69739e-07 -4.86721e-09
8.89241e-09 1.64671e-07 -7.69335e-09
2.87075e-08 1.65224e-07 -3.71595e-09
1.23635e-07 1.48402e-07 -1.05199e-08
1.0883e-07 1.48985e-07 -1.04092e-08
2.0784e-07 1.2055e-07 1.72713e-08
2.06304e-07 1.20188e-07 1.53931e-08
3.00779e-07 7.35954e-08 2.04998e-08
3.01496e-07 7.35044e-08 2.01058e-08
-1.23815e-07 1.14437e-07 -2.96924e-08
-1.32897e-07 1.15191e-07 -3.20446e-08
-1.32878e-07 1.1246e-07 -3.1763e-08
2.14923e-07 1.05949e-07 -4.28058e-08
5.54031e-07 -2.01496e-08 5.85108e-08
5.36457e-07 -2.03563e-08 3.35183e-08
-5.58289e-08 4.27789e-08 -2.16026e-09
6.62437e-08 1.4738e-07 6.97681e-09
6.54221e-08 1.44303e-07 5.40792e-09
-1.48378e-07 1.15604e-07 -3.5914e-08
-1.39514e-07 1.24911e-07 2.97992e-08
5.93141e-07 -2.06998e-08 1.04299e-07
-2.22778e-07 6.25816e-08 -3.15404e-08
1.80292e-07 1.26246e-07 -1.4601e-08
1.69683e-07 1.28237e-07 -1.6027e-08
-2.29776e-07 7.99319e-08 2.74633e-08
-2.33232e-07 7.91176e-08 2.76481e-08
-1.76756e-07 2.31117e-09 -3.99455e-09
-1.7599e-07 9.65707e-10 -3.78385e-09
-2.28301e-07 6.21207e-08 -3.27865e-08
-6.21955e-08 1.91183e-07 -1.42198e-08
-1.21236e-07 1.51207e-07 -2.50655e-08
-1.32667e-07 1.44884e-07 -2.31341e-08
-5.6512e-08 1.94432e-07 -1.07304e-08
1.36692e-08 1.76894e-07 -6.89857e-09
1.87413e-07 1.48808e-07 8.33042e-09
4.68779e-08 1.5264e-07 -5.66644e-09
6.00292e-08 1.54155e-07 -6.61085e-09
-1.02317e-07 1.46766e-07 2.12384e-08
1.41055e-08 1.76877e-07 -7.86343e-09
1.03904e-07 1.25288e-07 -3.52059e-08
1.03538e-07 1.27265e-07 -3.83886e-08
2.27288e-08 1.73535e-07 -5.13639e-09
-1.20691e-07 1.51376e-07 1.96421e-08
-5.3569e-08 6.852e-08 -3.32935e-09
3.1052e-07 7.23178e-08 -1.77808e-08
3.13216e-07 7.00976e-08 -1.59154e-08
-1.81467e-07 1.00172e-07 -3.87456e-08
1.29905e-07 1.43585e-07 -1.11816e-08
-1.79216e-07 1.01901e-07 -3.88062e-08
-1.79325e-07 1.04201e-07 -3.937e-08
8.59486e-08 1.67092e-07 4.08116e-09
-1.98893e-07 5.72147e-09 -5.61363e-09
1.49274e-07 1.47393e-07 1.22645e-08
1.61266e-07 1.46135e-07 1.17687e-08
4.70887e-07 -4.1347e-09 3.96586e-08
4.8336e-07 -1.01834e-08 2.85498e-08
-2.05641e-07 1.05396e-07 -5.51795e-09
-2.03175e-07 1.05552e-07 -6.91543e-09
2.26857e-07 1.04968e-07 1.48431e-08
3.99467e-07 2.59758e-08 -5.51346e-08
3.98207e-07 2.79994e-08 -5.3743e-08
2.28408e-07 1.05614e-07 1.75898e-08
4.73923e-07 -6.49946e-09 3.76868e-08
-2.26624e-07 8.53142e-08 2.02336e-08
-2.28235e-07 -2.82799e-08 -9.59031e-09
-2.254e-07 -3.0085e-08 -1.10925e-08
-1.26035e-07 1.30093e-07 2.81031e-08
-1.21843e-07 1.30269e-07 2.57829e-08
2.14936e-07 1.23517e-07 1.22811e-08
2.12637e-07 1.26064e-07 9.99001e-09
-2.26307e-07 8.37036e-08 2.1742e-08
-2.20848e-07 8.73048e-08 2.30452e-08
-1.15938e-07 1.26929e-07 -2.87421e-08
4.69722e-08 -7.95608e-08 2.33358e-08
3.9647e-07 3.15042e-08 9.9625e-09
3.987e-07 3.07715e-08 1.19728e-08
-5.82138e-09 -2.89249e-08 5.73831e-09
-1.15668e-07 1.26159e-07 -3.06062e-08
-1.57915e-07 1.10151e-07 -3.73075e-08
-1.58646e-07 1.08003e-07 -3.62033e-08
-1.5933e-07 1.06105e-07 -3.72634e-08
-9.08049e-08 -7.71334e-08 -7.74328e-09
-9.90023e-08 -7.36745e-08 -7.27344e-09
-2.78494e-08 -1.06529e-08 -1.77141e-09
-9.94453e-08 -7.44973e-08 -8.91564e-09
-1.38857e-07 1.27486e-07 2.80893e-08
-6.76691e-08 -8.24437e-08 -1.69641e-09
-6.83032e-08 -8.2527e-08 -3.07412e-09
-1.39441e-07 1.25293e-07 2.80139e-08
3.52054e-08 1.54243e-07 -6.28525e-10
-2.9725e-08 1.98057e-07 -9.88392e-09
-1.15073e-08 2.01625e-07 -9.3794e-09
2.3584e-08 1.50616e-07 -2.68282e-09
-1.41996e-07 1.19097e-07 3.10939e-08
-1.07378e-07 -7.60074e-08 -6.85971e-09
-1.0818e-07 -7.71283e-08 -8.67018e-09
-1.38039e-07 1.21518e-07 3.04784e-08
-1.37907e-07 1.24286e-07 3.1156e-08
1.20658e-07 -6.82877e-08 1.03818e-08
1.19816e-07 -6.88693e-08 8.53512e-09
-5.97299e-08 -9.69212e-08 1.068e-09
-6.22447e-08 -9.86407e-08 -6.31732e-10
2.75579e-07 8.12314e-08 -5.29796e-08
2.7461e-07 7.87522e-08 -4.81901e-08
-1.10808e-07 1.50206e-07 2.05794e-08
-6.99669e-08 -9.62556e-08 5.28424e-11
-2.07786e-07 3.20613e-08 -1.68802e-08
-2.10277e-07 3.32419e-08 -1.81039e-08
2.46248e-07 -4.08031e-08 -2.80315e-08
-6.63534e-08 -2.01393e-08 1.82152e-09
-5.98924e-08 -2.39164e-08 -1.2506e-09
-5.82166e-08 -2.70727e-08 -1.50605e-09
2.41455e-07 -4.2156e-08 -2.88104e-08
2.39812e-07 -4.08436e-08 -2.72654e-08
-3.41126e-08 4.57426e-08 2.55487e-09
-3.22993e-08 5.0001e-08 3.44585e-09
1.10224e-07 1.49976e-07 1.00895e-08
2.61882e-07 8.88781e-08 2.67669e-08
2.5704e-07 8.77648e-08 2.42879e-08
1.68641e-07 -4.73181e-08 -2.70321e-08
1.6327e-07 -4.46639e-08 -2.41017e-08
3.05274e-07 8.03177e-08 -5.94617e-09
3.08817e-07 7.86219e-08 -2.83506e-09
-7.66084e-08 1.7717e-07 1.20124e-08
-8.18581e-08 1.774e-07 1.32835e-08
-7.763e-08 1.80845e-07 9.96496e-09
5.35701e-08 1.73439e-07 -3.61034e-09
4.42596e-08 1.78024e-07 -1.6063e-09
8.56044e-09 1.6209e-07 -6.22844e-09
7.62834e-09 1.60452e-07 -6.99903e-09
4.1142e-08 1.8177e-07 -3.25868e-09
2.86685e-08 1.85889e-07 -4.41167e-09
4.57235e-08 1.81266e-07 -2.8165e-09
-1.99556e-08 -8.85129e-08 7.18135e-09
-2.17005e-08 -9.03527e-08 5.29604e-09
1.64357e-08 -8.41712e-08 1.48049e-08
1.62618e-08 -8.51823e-08 1.36438e-08
4.09795e-08 1.78302e-07 4.6352e-10
-7.53506e-08 1.71516e-07 1.62485e-08
-7.32297e-08 1.73099e-07 1.30609e-08
-5.53548e-08 1.54213e-07 1.5906e-08
-5.41764e-08 1.57396e-07 1.49667e-08
-9.11071e-08 -5.67968e-08 5.49638e-09
-6.94409e-08 1.70078e-07 1.65074e-08
1.7737e-07 6.77491e-09 1.50929e-08
1.65593e-07 3.56418e-09 1.13133e-08
-1.15656e-07 1.46602e-07 2.16115e-08
8.62515e-08 2.02266e-07 -1.61266e-09
1.53739e-08 2.8981e-08 7.08776e-09
-6.11197e-08 1.68696e-07 1.39963e-08
-2.30768e-07 7.61569e-08 -3.62791e-08
-2.38355e-07 7.25883e-08 -3.49902e-08
3.60226e-07 5.03547e-08 -6.64209e-09
-2.31792e-07 7.52175e-08 -3.66532e-08
-3.54544e-08 2.0076e-07 -8.77811e-09
-1.76502e-08 2.0485e-07 -8.57511e-09
-2.32809e-07 -2.47745e-08 7.66091e-09
-2.35348e-07 -2.3118e-08 5.87553e-09
2.75989e-07 7.42776e-08 5.02583e-08
2.6876e-07 7.98617e-08 5.36629e-08
1.569e-07 1.39913e-07 -1.36161e-08
-2.2895e-07 8.14964e-08 2.67988e-08
-2.2905e-07 7.98125e-08 2.60973e-08
-1.02933e-07 9.10591e-09 -3.35379e-09
-1.03415e-07 1.07668e-08 -3.33285e-09
-2.29275e-07 8.1906e-08 2.56301e-08
7.94445e-08 1.2716e-07 2.08636e-08
-1.66703e-08 6.01453e-08 -1.04434e-08
-1.75828e-08 6.12499e-08 -1.03659e-08
6.44448e-08 1.30003e-07 1.98771e-08
1.73515e-07 -4.79132e-08 -1.87744e-08
1.78926e-07 -4.71151e-08 -1.66314e-08
4.3576e-07 9.90378e-09 4.45828e-09
4.40034e-07 8.3334e-09 2.59451e-09
-2.17405e-08 1.33758e-07 -2.4209e-09
3.03075e-07 8.03366e-08 8.64073e-09
1.37793e-07 1.23124e-07 -3.70792e-08
1.29701e-07 1.30137e-07 -3.71643e-08
-6.00576e-09 1.32856e-07 2.9637e-09
-6.59671e-09 1.3143e-07 -8.60756e-13
1.05604e-08 1.66265e-07 -6.10702e-09
2.82081e-08 1.93123e-07 -5.4549e-09
-2.24977e-07 2.78705e-08 1.34561e-08
-2.22311e-07 2.71074e-08 1.26718e-08
2.02025e-07 1.30838e-07 -1.04687e-08
2.05913e-07 1.38538e-07 5.19571e-09
2.08945e-07 1.35253e-07 6.99938e-09
2.10368e-07 1.34863e-07 7.27599e-09
-4.41565e-08 9.24259e-08 6.01658e-10
1.47055e-07 1.43562e-07 9.87072e-09
2.5165e-07 1.1065e-07 4.58195e-09
2.55367e-07 1.10196e-07 3.97827e-09
1.31794e-07 1.46581e-07 1.21792e-08
-2.54549e-08 -1.08422e-07 2.17772e-09
-1.89688e-08 -1.05582e-07 1.90458e-10
1.28312e-07 1.49019e-07 9.67198e-09
2.83256e-07 8.21823e-08 -2.36828e-08
-4.79507e-09 3.28461e-09 4.32119e-10
-4.93123e-09 4.30643e-10 -6.87683e-11
2.81637e-07 8.11412e-08 -2.02005e-08
2.93123e-07 7.85223e-08 -2.22626e-08
2.97312e-07 7.54534e-08 -1.87865e-08
2.78482e-07 8.41122e-08 -2.20813e-08
-1.37196e-08 1.83075e-09 -5.24804e-11
-1.42669e-08 4.75484e-09 -6.1454e-10
9.03831e-08 2.01386e-07 -2.36383e-09
2.77001e-10 -9.06279e-08 -5.68561e-09
9.44686e-09 -9.12885e-08 -5.89695e-09
7.66249e-08 2.03584e-07 -3.92843e-09
-9.77851e-08 1.83377e-07 -9.23727e-09
6.51288e-08 2.06526e-07 -2.65761e-09