# vtk DataFile Version 2.0
S, Created by Mohamad Ibrahim Cheikh
ASCII
DATASET UNSTRUCTURED_GRID
POINTS 23916 double
-149.665 59.1634 105.742
-152.404 56.8066 106.552
-286.937 -67.8427 52.3578
-283.972 -67.1934 55.1023
-354.196 12.7222 43.6192
8.03629 4.76798 131.884
-323.936 53.2193 41.7676
-298.273 -63.3266 50.2147
-323.259 51.2528 44.7619
-332.663 -39.3415 48.2441
-329.526 -38.8817 51.1642
-335.874 -35.9549 48.163
-335.245 -32.7091 50.9341
63.2233 44.4391 -122.31
66.4582 47.0289 -121.126
-320.457 -53.6334 44.4377
-322.928 -50.822 45.5388
-15.6496 16.7256 130.822
-358.911 -6.43727 -40.1422
-359.4 -9.86454 -38.8916
-343.51 8.20342 53.9448
-140.155 -107.425 58.983
-140.473 -105.704 61.926
-297.893 -76.098 -27.7233
-300.613 -75.6803 -25.1525
-169.824 63.2323 -99.4725
-166.325 64.99 -99.0626
-344.754 11.1988 52.4127
-289.046 21.6464 82.0163
-267.018 75.907 54.1572
-263.112 77.559 54.1569
-173.438 53.4708 104.317
-171.463 55.9515 103.412
-291.093 18.2167 81.9634
-333.431 -12.6779 60.4308
-331.64 -9.43428 62.2048
-266.21 92.6128 13.0569
-242.899 -23.811 98.1511
-245.845 -25.714 96.7633
-196.521 -99.2714 -53.2997
-200.352 -99.4493 -51.1797
-196.587 -92.6012 64.1678
-199.83 -93.0443 62.2725
-187.856 -98.4802 58.3531
-217.039 -2.46967 107.938
-216.477 1.50527 108.094
-191.272 -98.7709 56.4731
-210.345 103.625 35.6225
-210.609 102.468 38.6479
-282.846 -10.1096 86.759
-281.966 -6.33318 87.4649
319.43 25.1396 -65.5722
321.486 21.8824 -65.5101
-265.491 15.3625 92.5118
-266.893 11.84 92.5357
16.38 7.9724 -131.634
-304.045 -63.1653 -46.0029
-301.827 -62.7626 -48.2854
-312.008 -63.3727 -38.5933
184.886 79.8696 82.824
-309.208 -63.5986 -40.9106
19.6972 95.1277 -91.2536
-259.441 94.57 -15.4834
-263.109 93.2466 -15.9262
-309.509 -64.3556 39.4213
-312.012 -62.3025 40.2944
-23.1365 8.8024 -131.457
-157.465 115.225 33.3392
-160.102 114.122 35.5252
15.4868 14.4043 131.1
11.6416 16.2237 130.936
-246.314 22.4571 97.4255
-249.022 19.9549 97.1271
-319.052 34.9235 61.1689
-250.74 22.2361 -96.0848
-11.6239 18.6664 130.61
-253.212 24.7947 -94.6542
-239.251 -25.5908 98.7981
-238.105 -29.2918 98.1066
304.014 -8.12726 77.7328
302.517 -4.9631 78.7081
-309.938 51.5581 54.8172
-313.63 50.7978 52.9235
-138.478 112.991 48.0557
-136.118 112.082 50.9246
-255.962 67.1698 69.9358
-260.188 65.5091 69.6008
-321.367 31.3184 61.6352
-353.748 8.80692 45.0084
-363.69 2.50492 -34.9827
-366.017 2.39295 -31.882
-173.099 -90.0535 -75.1395
-174.767 -87.6649 -77.4558
16.481 -8.18459 131.62
-346.063 24.5814 -46.4493
-228.614 -71.146 -77.2237
-231.131 -68.9648 -78.278
-217.064 75.3722 77.2949
-213.614 74.8548 78.9564
-176.438 -83.2795 -81.7141
-180.816 86.7534 76.7793
-351.406 22.4088 -42.4657
-266.794 79.2467 49.2895
-269.035 77.0516 51.2404
-302.671 13.0452 -77.7047
66.8739 -3.4992 -129.862
-304.312 9.75839 -77.4016
-341.697 -41.8061 37.1708
-338.787 -43.8913 38.0182
-336.648 52.6941 -27.7859
33.4908 20.468 -129.876
-333.456 54.8316 -28.3571
-348.847 24.9845 -43.5967
-222.668 101.527 -32.3421
-219.131 102.731 -31.4883
-217.826 104.144 -27.7303
-221.345 103.812 -25.4712
-149.807 -120.695 -10.4487
-153.234 -119.534 -16.1553
-354.404 24.3 38.1575
-279.743 -81.9716 -33.5224
-276.259 -83.274 -33.8471
-152.856 -120.072 -12.0932
38.4785 23.8063 129.136
-21.5444 6.39103 131.63
-18.4063 8.26081 131.584
-243.844 -32.7079 95.2602
75.9899 -10.6289 128.857
-17.9082 -1.50155 131.843
-246.318 -29.5948 95.4986
-270.121 32.8216 86.1022
-278.85 -76.5593 45.1975
-266.008 34.6418 86.9525
-15.6424 -4.31914 131.816
-265.251 37.7093 85.9538
-20.7928 3.28466 131.758
-275.674 77.7255 -45.5906
-276.225 79.4214 -42.1283
-204.411 50.2897 98.8905
-207.655 49.8055 98.3062
-268.414 80.5258 46.0324
-245.622 -88.7952 46.4022
-282.5 -72.3212 49.2232
-282.15 -74.6942 45.8063
-287.563 7.99555 -85.0645
-288.445 4.49293 -84.956
295.628 59.8362 -56.0684
298.123 57.859 -56.5249
299.058 55.2743 -58.4728
-30.6501 -22.8102 -129.571
-288.016 84.5002 -11.3021
-229.731 85.6668 60.1978
-231.886 83.6831 61.951
-105.501 117.297 -47.9867
-365.713 13.377 -29.5032
-289.859 84.1081 -7.96404
-375.463 -7.2661 10.5783
-375.589 -9.82494 7.51821
-287.778 85.1745 -5.48758
-362.718 34.2114 -12.088
-360.733 37.0783 -10.8419
167.324 99.0114 64.7533
165.302 101.142 62.0395
161.021 101.914 62.1541
-357.279 -20.3895 -37.1513
-354.489 -21.3141 -39.8099
-112.243 114.595 -52.4355
-341.437 51.7049 21.857
-343.463 49.7089 22.5895
-344.292 47.547 25.5092
-342.984 47.0032 28.4989
131.545 -117.466 -38.8234
-319.32 -63.2256 -30.7065
-322.662 -61.6172 -29.681
129.089 -116.825 -41.6617
125.312 -117.359 -41.5733
-210.107 79.935 75.0314
-209.626 77.6266 77.5767
-342.951 -46.1057 29.9755
-339.832 -48.7951 30.0674
-109.768 116.157 -49.5618
-302.52 -70.5733 35.1962
-255.4 -38.534 -89.1802
-298.934 -71.5553 36.922
-295.876 -73.864 35.3585
-326.421 -13.2649 -64.8305
-328.021 -15.8777 -63.235
-161.272 -108.533 -49.6017
-326.423 -19.5048 -63.2328
-221.143 -99.1581 40.0538
-296.634 55.3039 59.9383
-299.119 52.7 60.7665
-320.411 -43.9464 -54.0703
-320.067 -46.8045 -51.877
-316.385 -52.1515 -49.4875
-313.56 -54.8333 -48.7848
-300.147 -44.3475 -66.5414
-304.255 -42.9618 -65.152
-312.409 34.5509 65.4302
-312.595 30.4284 67.3404
-224.286 101.146 32.1682
-227.779 100.172 32.2091
-282.29 1.46339 -87.5536
-280.47 -1.85276 -88.2596
-285.822 14.3974 -84.9403
-284.627 17.5933 -84.8295
-201.46 77.5492 -80.2567
-200.234 75.0862 -82.9299
-278.704 -63.4024 -62.4036
-274.81 -64.5724 -63.312
-166.286 -109.626 -44.9543
-144.719 -120.655 17.3871
-244.184 -67.6799 -74.4541
-313.195 73.2631 -6.86668
-272.981 56.511 71.4645
-314.473 72.1171 -10.7513
-165.346 -108.432 -48.1584
-160.135 -117.851 19.8871
63.8767 9.54429 129.743
60.7664 11.3996 129.777
-157.018 -118.838 16.827
-51.6469 -118.437 -55.409
-241.194 54.4102 85.6809
-241.017 57.8462 83.4621
-221.33 -88.8498 -59.4324
-218.84 -87.7199 -62.1765
-349.758 17.7657 46.1666
-244.72 52.5432 85.622
52.3537 79.5385 -103.74
-6.79105 -15.7842 131.031
-235.25 59.5073 -84.3045
-233.347 57.5297 -86.3011
-361.762 3.56064 37.264
40.0722 -13.5469 -130.552
48.6551 81.2208 -102.652
-221.312 -54.0166 92.248
-221.324 -56.8183 90.5457
230.898 -100.722 27.4179
226.895 -101.915 27.1002
225.629 -103.07 23.8305
-100.526 121.308 -38.3548
-287.991 80.3943 -28.399
-289.775 78.5314 -31.2478
-100.552 119.976 -42.3307
-316.841 -13.2304 -70.4159
335.544 30.1926 52.2301
-37.7727 5.49271 -131.222
-41.7354 6.13163 -131.046
-308.01 66.0726 37.9923
332.528 25.6914 56.7997
335.354 27.1855 54.0014
-273.758 -26.2005 86.9606
-270.599 -28.4947 87.4484
-209.104 -12.0008 109.21
-209.363 -15.427 108.718
-112.543 102.421 73.3712
-115.151 103.469 71.3777
-373.595 -18.2475 -1.73519
-288.145 -78.5481 -33.0018
-285.882 -80.7693 -29.9038
-215.301 -95.9976 50.3315
-371.358 -23.1368 2.16159
-372.084 -21.7117 -1.58114
-254.472 -96.844 10.8225
-263.11 -94.2601 7.97427
-257.384 -95.6927 12.5019
-261.18 -94.5867 11.2145
12.8606 15.9324 -130.958
-347.062 -26.42 44.486
-258.871 37.9292 88.2088
-255.288 39.8704 88.6304
-356.515 42.8285 -5.33004
-358.684 40.7947 -2.93423
-239.502 -72.7798 -71.4446
6.12474 2.13399 131.965
-348.183 -23.0948 -45.2568
-349.958 -19.1518 -45.4207
-330.034 56.2961 30.3198
-164.868 74.4542 -92.4809
-244.015 -45.5733 -89.7618
-240.557 -46.1552 -90.603
-160.498 79.3305 -89.3135
-161.344 76.4322 -91.6243
-289.537 -75.6932 37.8287
-292.582 -73.946 38.4108
-286.219 -76.0773 40.0818
-325.306 -29.7903 59.8369
-325.519 -35.7106 56.3531
-324.032 -33.0079 58.9886
-298.897 -67.6066 43.766
-302.044 -66.1405 43.3597
-304.296 -66.5368 40.7464
338.503 -11.1606 -57.1915
340.987 -8.81815 -55.7762
-351.923 -45.2189 -14.7054
-311.004 68.9807 28.7007
-354.664 -42.2475 -15.4619
-304.999 63.9789 44.0649
-308.272 61.6528 44.5888
-298.31 18.6983 -78.6092
-296.014 20.6644 -79.1779
-336.009 -1.56839 -59.9906
-334.581 1.80258 -60.9535
-282.853 76.253 -42.5954
-280.023 78.4721 -40.8172
-313.921 69.8378 21.9448
-309.559 73.3071 17.8305
-274.986 88.3855 18.819
-310.89 71.6574 21.3539
-348.132 8.71452 -50.0993
-351.208 8.36347 -47.4613
-352.385 11.6642 -45.6635
294.448 52.0588 64.0253
297.931 51.0328 62.8682
-53.2708 77.474 105.235
-274.578 -72.2478 54.533
299.482 47.6069 64.6289
-273.861 -61.915 -66.3945
-331.896 60.1183 17.9856
-333.543 58.0195 20.911
-270.969 -61.5694 -68.1456
-267.954 -63.6702 -67.6731
-315.621 70.0199 -18.0301
-312.068 72.0695 -17.5192
-349.397 47.0225 -16.3339
-311.309 73.267 -13.8141
-121.624 -107.536 63.6308
-118.584 -108.6 62.5169
-338.883 57.3632 -8.56571
-337.728 56.9919 -14.5417
-339.495 56.3173 -11.8901
-334.293 -8.18947 -60.6228
-331.738 -10.5629 -61.9594
-333.506 -4.21453 -61.5529
-328.377 27.742 58.7584
-327.869 23.8464 60.7808
-296.81 59.9585 -55.1663
-300.289 59.5054 -53.3206
-201.958 99.6223 -50.0585
-199.267 98.9463 -52.6523
-156.891 -56.4631 -105.935
-157.465 -59.6066 -104.093
-161.36 -60.6697 -102.74
-174.686 69.3701 94.2115
17.3734 130.836 -16.4003
14.522 131.182 -13.7623
-17.4848 1.54126 131.849
-290.013 10.4163 -83.7746
-293.117 10.1038 -82.4803
-240.368 -69.6711 -74.1372
-273.306 -62.0384 66.5592
20.0895 131.12 -13.4982
-103.796 -96.6932 -82.1912
-305.218 50.2213 59.131
-305.629 47.3078 61.2362
-201.841 -98.723 51.8651
-202.599 -100.152 48.6648
23.8966 -70.6461 -111.19
27.3816 -69.9355 -111.54
-104.719 -99.1933 -79.007
-363.614 -27.2784 -22.1973
-332.853 -48.718 -38.5528
-330.148 -52.2936 -36.6705
-365.896 -25.3588 -19.7475
-348.203 -9.07654 -49.9746
-349.929 44.3692 -21.5339
-309.74 5.04164 75.1845
-310.759 8.39024 74.3662
-320.274 -44.3312 53.8553
-344.873 -9.44582 -52.6617
-138.666 37.5476 116.876
-135.146 39.1315 116.861
-343.364 -6.37419 -54.3041
-332.215 -47.2573 40.9692
-41.2795 -1.30277 131.201
-206.562 102.898 40.1505
-203.326 104.212 38.7604
-192.338 -82.0863 -78.4643
-325.923 30.9576 58.8245
-198.938 -81.3104 -77.2482
-195.447 -80.3228 -79.3439
-346.191 12.6908 -50.8906
16.0659 -82.9612 -102.517
-334.995 35.449 -49.2748
-335.113 38.6802 -46.6775
-3.30799 129.08 -27.5876
1.19717 130.158 -21.9716
-298.719 -80.571 -2.72822
[...]
POINT_DATA 23916
VECTORS F double
2.03151e-07 4.92649e-07 -2.40438e-07
1.9715e-07 5.00419e-07 -2.32266e-07
-3.63478e-07 2.37178e-07 6.34453e-08
-3.65133e-07 2.43009e-07 6.59524e-08
8.13113e-08 3.81975e-07 -3.05692e-08
-4.69851e-07 -1.04057e-07 7.26728e-09
3.39816e-07 3.28262e-07 -9.5596e-08
-3.46056e-07 2.48634e-07 6.1894e-08
3.19638e-07 3.25971e-07 -9.06257e-08
-2.42746e-07 3.064e-07 4.49319e-08
-2.42559e-07 3.11715e-07 4.56221e-08
-2.30179e-07 3.19984e-07 4.23514e-08
-2.0833e-07 3.2086e-07 3.81743e-08
-1.88633e-07 -3.66298e-07 -1.45025e-07
-1.67554e-07 -3.84124e-07 -1.60397e-07
-3.14004e-07 2.70599e-07 4.93636e-08
-3.02041e-07 2.81619e-07 5.20633e-08
-4.09773e-07 1.60811e-08 -8.05731e-09
-2.61999e-08 3.65589e-07 -2.99493e-08
-5.60287e-08 3.68379e-07 -3.00486e-08
4.2918e-08 3.70363e-07 -2.28606e-08
-5.69564e-07 1.14512e-07 4.28617e-08
-5.66769e-07 1.17204e-07 4.26559e-08
-4.14122e-07 2.10948e-07 -3.4239e-08
-4.10194e-07 2.08597e-07 -2.74263e-08
3.60001e-07 5.35594e-07 2.65217e-07
3.59224e-07 5.36893e-07 2.78387e-07
6.46624e-08 3.77842e-07 -2.86573e-08
9.58872e-08 3.91258e-07 -6.18907e-08
4.91838e-07 3.24602e-07 -1.58073e-07
4.93894e-07 3.22734e-07 -1.6842e-07
1.95773e-07 5.17917e-07 -2.25623e-07
2.04248e-07 5.09859e-07 -2.344e-07
7.74716e-08 4.00458e-07 -5.53173e-08
-9.27903e-08 3.61854e-07 1.32333e-08
-7.43652e-08 3.57326e-07 5.65428e-09
6.73832e-07 2.48035e-07 -7.73126e-08
-2.02932e-07 3.74986e-07 2.94845e-08
-1.99473e-07 3.63603e-07 3.45773e-08
-5.22556e-07 1.69789e-07 -8.03472e-08
-5.20139e-07 1.66096e-07 -7.34588e-08
-4.95779e-07 1.78463e-07 7.15843e-08
-4.93373e-07 1.74214e-07 6.64678e-08
-5.20232e-07 1.58928e-07 6.31723e-08
-1.37892e-07 4.44232e-07 -2.37818e-08
-1.03423e-07 4.41383e-07 -3.15044e-08
-5.18619e-07 1.55916e-07 5.76417e-08
8.28119e-07 2.63392e-07 -1.67529e-07
7.98833e-07 2.64481e-07 -1.68262e-07
-9.66509e-08 3.78089e-07 5.48007e-09
-7.42689e-08 3.75554e-07 -2.11946e-09
4.20493e-08 -1.47186e-07 -3.13512e-08
3.63066e-08 -1.51717e-07 -2.88652e-08
3.70004e-08 4.13161e-07 -5.56091e-08
1.39092e-08 4.21233e-07 -4.89854e-08
-4.6198e-07 -1.83507e-07 -1.81524e-08
-3.45952e-07 2.41621e-07 -5.18278e-08
-3.48263e-07 2.46977e-07 -5.45018e-08
-3.54273e-07 2.40634e-07 -4.44806e-08
1.20683e-07 -2.39759e-07 1.98224e-07
-3.5651e-07 2.43698e-07 -4.89524e-08
4.36921e-07 -1.02621e-07 -9.54319e-08
7.02489e-07 2.42469e-07 3.98316e-08
6.98462e-07 2.48539e-07 4.24557e-08
-3.57601e-07 2.42957e-07 5.28901e-08
-3.51745e-07 2.51062e-07 5.47275e-08
-4.61871e-07 1.91267e-08 1.12329e-08
1.04642e-06 2.216e-07 -1.60784e-07
1.01319e-06 2.33733e-07 -1.91806e-07
-4.21257e-07 -1.32733e-07 2.06764e-08
-4.14431e-07 -1.16132e-07 1.89007e-08
4.86391e-08 4.39818e-07 -8.63246e-08
4.89073e-08 4.35994e-07 -7.42235e-08
2.03459e-07 3.51788e-07 -7.09209e-08
1.36218e-07 4.41473e-07 5.86457e-08
-4.00639e-07 -2.61843e-11 -4.36146e-09
1.49437e-07 4.49702e-07 6.88562e-08
-2.04199e-07 3.71874e-07 3.57828e-08
-2.31724e-07 3.61474e-07 3.90714e-08
-1.00857e-07 -1.64368e-07 3.11084e-08
-9.87967e-08 -1.6411e-07 3.61424e-08
3.12893e-07 3.43686e-07 -1.06659e-07
3.08724e-07 3.34202e-07 -9.6788e-08
1.01066e-06 2.55136e-07 -2.43327e-07
1.00795e-06 2.58545e-07 -2.3919e-07
3.94559e-07 3.71471e-07 -1.7998e-07
3.93564e-07 3.67564e-07 -1.65828e-07
1.81421e-07 3.64357e-07 -6.93264e-08
4.84059e-08 3.77636e-07 -2.73111e-08
3.68522e-08 3.84345e-07 -1.93889e-08
3.4399e-08 3.81602e-07 -1.97127e-08
-5.2708e-07 2.01377e-07 -9.26876e-08
-5.13729e-07 2.09813e-07 -9.55526e-08
-5.13239e-07 -1.38367e-07 -7.35918e-10
2.02956e-07 3.53445e-07 1.91813e-09
-4.02564e-07 2.50239e-07 -8.46377e-08
-3.93148e-07 2.60934e-07 -8.77663e-08
4.62288e-07 4.02845e-07 -2.33882e-07
4.69768e-07 4.18945e-07 -2.41579e-07
-5.01826e-07 2.26078e-07 -9.77497e-08
5.77738e-07 4.07643e-07 -2.94022e-07
1.89746e-07 3.56125e-07 -4.31332e-09
5.22621e-07 3.09669e-07 -1.51542e-07
4.97731e-07 3.22017e-07 -1.64277e-07
1.00791e-07 3.63128e-07 1.28966e-08
-4.16144e-07 -3.23595e-07 -1.75172e-08
8.16448e-08 3.71173e-07 7.49559e-09
-2.71814e-07 3.06827e-07 3.91752e-08
-2.76748e-07 2.99702e-07 4.4069e-08
3.92224e-07 3.08215e-07 2.70378e-09
-3.81922e-07 -2.61363e-07 -5.32478e-08
3.99076e-07 3.02136e-07 9.66881e-09
2.01569e-07 3.49698e-07 2.93596e-09
8.22724e-07 2.69899e-07 1.53776e-07
8.28349e-07 2.6151e-07 1.47417e-07
8.64161e-07 2.57911e-07 1.37538e-07
8.46912e-07 2.48506e-07 1.11779e-07
-5.89301e-07 9.17977e-08 -2.59518e-08
-5.85159e-07 9.62008e-08 -3.22711e-08
1.62341e-07 3.71777e-07 -5.21558e-08
-4.33901e-07 1.99239e-07 -4.38891e-08
-4.34801e-07 1.95377e-07 -4.62019e-08
-5.87207e-07 9.46651e-08 -3.12136e-08
-3.57168e-07 -2.20601e-07 5.36979e-08
-4.5949e-07 3.30127e-08 -1.08104e-08
-4.52398e-07 2.28866e-08 -9.18446e-09
-2.37845e-07 3.46424e-07 4.44071e-08
-4.50809e-07 -2.85822e-07 8.97212e-09
-4.94394e-07 9.39297e-09 -8.11461e-09
-2.20173e-07 3.62251e-07 4.27344e-08
1.47171e-07 4.04043e-07 -9.74913e-08
-4.00219e-07 2.14127e-07 6.0403e-08
1.45972e-07 4.16024e-07 -1.1107e-07
-5.08307e-07 -3.00541e-09 -7.48341e-09
1.7491e-07 4.09327e-07 -1.13494e-07
-4.74804e-07 2.85598e-08 -9.8855e-09
5.665e-07 2.95628e-07 8.46208e-08
5.84121e-07 2.95818e-07 8.87832e-08
2.1825e-07 4.98637e-07 -1.98345e-07
2.17534e-07 4.82914e-07 -1.88404e-07
5.34148e-07 3.08859e-07 -1.58974e-07
-4.55123e-07 1.86135e-07 6.12402e-08
-3.83262e-07 2.25342e-07 6.17853e-08
-3.97324e-07 2.21557e-07 6.16499e-08
7.16049e-08 3.78089e-07 5.90176e-09
4.07731e-08 3.8407e-07 3.36268e-09
1.30088e-07 -1.25163e-07 -4.95991e-08
1.27024e-07 -1.29864e-07 -5.09071e-08
1.15358e-07 -1.33038e-07 -5.35273e-08
-5.65784e-07 2.34683e-08 1.2254e-08
6.07894e-07 2.53256e-07 -3.13099e-09
5.84139e-07 3.35174e-07 -2.04056e-07
5.63013e-07 3.48332e-07 -2.12515e-07
1.14425e-06 2.50721e-07 3.04855e-07
1.24598e-07 3.84197e-07 -1.48974e-08
5.94578e-07 2.49947e-07 -9.74074e-09
-6.65295e-08 4.04228e-07 -1.14275e-08
-8.77952e-08 4.02391e-07 -1.1105e-08
6.10219e-07 2.51045e-07 -2.1336e-08
2.78138e-07 3.54606e-07 -1.82013e-08
2.96499e-07 3.4598e-07 -2.45837e-08
3.04616e-07 -2.02537e-07 2.13322e-07
3.39287e-07 -1.88827e-07 1.97163e-07
3.38171e-07 -1.92686e-07 2.08688e-07
-1.33505e-07 3.46816e-07 -3.31541e-08
-1.35861e-07 3.48708e-07 -3.85856e-08
1.08151e-06 2.84842e-07 3.3907e-07
3.5783e-07 3.17218e-07 -6.60416e-08
3.47497e-07 3.24714e-07 -6.76715e-08
3.25849e-07 3.26647e-07 -7.03978e-08
3.22061e-07 3.28067e-07 -6.65363e-08
-3.52476e-07 -5.94214e-08 3.35694e-08
-3.60304e-07 2.41772e-07 -3.9089e-08
-3.57864e-07 2.45564e-07 -3.34912e-08
-3.58531e-07 -6.17642e-08 3.71861e-08
-3.59624e-07 -5.98185e-08 3.615e-08
5.16984e-07 4.05358e-07 -2.54609e-07
4.797e-07 4.0475e-07 -2.46312e-07
-3.01256e-07 2.9607e-07 3.34112e-08
-3.08456e-07 2.85523e-07 3.65387e-08
1.13905e-06 2.61899e-07 3.04949e-07
-3.85108e-07 2.26614e-07 4.91376e-08
-2.38726e-07 3.29946e-07 -5.88642e-08
-3.86559e-07 2.26365e-07 5.5524e-08
-3.94471e-07 2.17419e-07 5.00606e-08
-6.27178e-08 3.39171e-07 -3.07366e-08
-7.73787e-08 3.43138e-07 -3.70169e-08
-5.68876e-07 1.3839e-07 -7.63599e-08
-1.03328e-07 3.30595e-07 -3.66709e-08
-4.92993e-07 1.54919e-07 5.0278e-08
3.28351e-07 3.42598e-07 -1.17158e-07
3.15494e-07 3.53444e-07 -1.1639e-07
-2.47629e-07 2.90221e-07 -5.62266e-08
-2.71173e-07 2.8711e-07 -5.42034e-08
-2.99196e-07 2.73578e-07 -5.41169e-08
-3.08936e-07 2.61985e-07 -5.13627e-08
-2.43693e-07 2.97128e-07 -6.34472e-08
-2.42822e-07 2.9632e-07 -5.65653e-08
2.01831e-07 3.64363e-07 -7.44197e-08
1.60044e-07 3.64608e-07 -7.37939e-08
7.76034e-07 2.57817e-07 -1.48208e-07
7.74311e-07 2.60069e-07 -1.38421e-07
2.29261e-08 3.89872e-07 -2.53374e-09
-1.59394e-09 3.76214e-07 -7.27771e-09
1.12036e-07 3.96908e-07 2.11192e-08
1.37863e-07 3.89007e-07 2.40455e-08
5.57453e-07 4.6036e-07 2.7351e-07
5.33463e-07 4.6143e-07 2.60091e-07
-3.49424e-07 2.53354e-07 -6.63466e-08
-3.49736e-07 2.52337e-07 -7.15052e-08
-5.66369e-07 1.34252e-07 -7.08961e-08
-5.85886e-07 8.60295e-08 -4.98109e-11
-3.81605e-07 2.59073e-07 -8.22758e-08
5.1954e-07 2.69719e-07 -2.34808e-08
3.118e-07 3.78145e-07 -1.53203e-07
5.06678e-07 2.67503e-07 -2.01063e-08
-5.68292e-07 1.37764e-07 -7.13043e-08
-5.74719e-07 9.6852e-08 7.36897e-09
-3.98708e-07 -2.86061e-07 4.50762e-08
-3.99495e-07 -2.85485e-07 4.7979e-08
-5.80869e-07 9.39948e-08 2.16661e-10
-5.9537e-07 3.98769e-08 -1.72947e-08
2.76768e-07 4.22962e-07 -1.73208e-07
3.19216e-07 4.19415e-07 -1.77831e-07
-4.68584e-07 1.96962e-07 -8.08072e-08
-4.72316e-07 2.03388e-07 -8.34171e-08
1.10089e-07 3.76838e-07 -4.29007e-08
2.76209e-07 4.19959e-07 -1.61062e-07
1.66444e-07 -3.0563e-07 -2.24045e-07
-5.42914e-07 -4.63294e-08 -9.02577e-09
4.14102e-07 4.49626e-07 1.759e-07
4.01327e-07 4.46833e-07 1.65012e-07
1.96437e-08 3.89417e-07 -1.38577e-08
-4.94574e-07 -2.48802e-07 7.23146e-09
1.76667e-07 -2.86058e-07 -2.16085e-07
-3.46552e-07 2.97678e-07 7.2518e-08
-3.60442e-07 2.93946e-07 7.6588e-08
-2.46234e-07 -7.23468e-08 -1.18949e-08
-2.48062e-07 -7.00504e-08 -9.16238e-09
-2.52713e-07 -6.96611e-08 -8.35167e-09
1.25431e-06 2.12108e-07 2.68367e-07
5.84205e-07 2.71516e-07 4.33045e-08
5.6403e-07 2.75359e-07 5.16536e-08
1.22385e-06 2.18927e-07 2.64574e-07
-5.80215e-08 3.39284e-07 -3.17853e-08
8.48457e-09 -1.25532e-07 6.58934e-08
-4.59464e-07 9.6125e-08 2.02159e-08
-4.56351e-07 1.22325e-07 2.35172e-08
4.21773e-07 2.99949e-07 -1.03005e-07
-5.55535e-09 -1.29822e-07 6.27032e-08
-3.23365e-09 -1.25785e-07 6.57826e-08
-1.85751e-07 3.49416e-07 3.36845e-08
-1.90774e-07 3.42273e-07 3.92541e-08
-1.901e-07 4.15578e-07 1.1043e-09
-2.14019e-07 4.14794e-07 8.39986e-09
8.07973e-07 3.52031e-07 -3.39676e-07
8.01114e-07 3.42459e-07 -3.38198e-07
-1.52769e-07 3.84146e-07 -1.28157e-08
-4.16227e-07 2.0587e-07 -4.50651e-08
-4.3055e-07 2.00191e-07 -3.67778e-08
-4.8571e-07 1.65213e-07 6.07385e-08
-1.89233e-07 3.71215e-07 -6.84597e-09
-1.77132e-07 3.7238e-07 -1.00473e-08
-4.8369e-07 1.57222e-07 1.44691e-08
-4.73942e-07 1.63094e-07 1.334e-08
-4.79635e-07 1.60801e-07 2.18682e-08
-4.78801e-07 1.64e-07 1.80008e-08
-4.26711e-07 -1.6953e-07 -2.57558e-08
-1.81268e-07 3.44037e-07 3.11847e-08
1.73726e-07 4.17568e-07 -1.17131e-07
1.74396e-07 4.21311e-07 -1.28027e-07
3.33716e-07 3.36649e-07 -2.77907e-08
3.18681e-07 3.40448e-07 -3.61992e-08
-4.05238e-07 2.44511e-07 -8.27628e-08
-4.82588e-07 -9.61469e-08 4.29706e-09
-1.41268e-07 3.33726e-07 -3.72404e-08
-1.1348e-07 3.47783e-07 -3.96002e-08
3.78065e-07 3.15309e-07 -8.1609e-08
4.91194e-07 5.16916e-07 3.08949e-07
-2.83155e-07 3.17043e-07 -6.67267e-08
-2.82401e-07 3.26519e-07 -7.45385e-08
5.47749e-07 5.01907e-07 3.25296e-07
4.88321e-07 5.17022e-07 3.26017e-07
-4.00532e-07 2.13486e-07 5.18481e-08
-3.97205e-07 2.20869e-07 5.47806e-08
-4.02456e-07 2.15531e-07 5.72385e-08
-1.86658e-07 3.29253e-07 3.96826e-08
-2.21614e-07 3.17846e-07 4.46896e-08
-2.0894e-07 3.19155e-07 3.80706e-08
-3.66363e-07 2.36247e-07 5.86105e-08
-3.65292e-07 2.40394e-07 5.51557e-08
-3.64968e-07 2.37353e-07 5.38898e-08
-2.46154e-08 -1.31385e-07 7.80109e-09
-2.08141e-08 -1.32539e-07 5.37421e-09
-3.01456e-07 2.93085e-07 -1.79831e-08
4.58909e-07 2.92524e-07 -9.42449e-08
-2.88879e-07 3.05385e-07 -2.3166e-08
4.01091e-07 3.10886e-07 -1.11491e-07
3.92182e-07 3.21214e-07 -1.12181e-07
1.4734e-07 3.7704e-07 2.12287e-08
1.49678e-07 3.78806e-07 3.03526e-08
1.16612e-08 3.57402e-07 -1.7341e-08
3.79742e-08 3.47941e-07 -1.52311e-08
5.60459e-07 2.98796e-07 7.92457e-08
5.77544e-07 2.87838e-07 6.82817e-08
4.71181e-07 2.85331e-07 -8.28302e-08
5.01894e-07 2.77722e-07 -7.50022e-08
6.25168e-07 2.57686e-07 -9.18399e-08
4.77057e-07 2.781e-07 -8.28833e-08
8.84401e-08 3.63108e-07 -1.20816e-08
8.54695e-08 3.5744e-07 -1.4448e-08
1.09118e-07 3.64784e-07 -9.91641e-09
4.12199e-08 -1.59428e-07 1.06422e-07
4.18145e-08 -1.51386e-07 9.86269e-08
2.27851e-07 2.99152e-07 -2.06115e-07
-3.85593e-07 2.27996e-07 6.43625e-08
2.71075e-08 -1.57835e-07 1.00886e-07
-3.37436e-07 2.54804e-07 -6.72093e-08
4.16122e-07 3.00124e-07 -6.30569e-08
3.94185e-07 3.03303e-07 -7.17578e-08
-3.4068e-07 2.64447e-07 -7.30766e-08
-3.45917e-07 2.54857e-07 -7.20933e-08
5.02905e-07 2.77963e-07 1.65167e-09
5.09916e-07 2.69853e-07 -1.94558e-09
3.55199e-07 3.18218e-07 -1.41419e-08
5.23153e-07 2.7143e-07 -3.79686e-09
-5.8343e-07 1.02283e-07 3.6329e-08
-5.8723e-07 9.53803e-08 2.9316e-08
4.18962e-07 2.99515e-07 -2.35291e-08
4.1888e-07 2.99492e-07 -1.72907e-08
4.0956e-07 2.97493e-07 -2.26512e-08
-3.36104e-08 3.53482e-07 -2.50614e-08
-4.257e-08 3.44833e-07 -3.08835e-08
-2.93831e-10 3.48591e-07 -2.36739e-08
1.63635e-07 3.62345e-07 -5.9114e-08
1.31804e-07 3.59407e-07 -5.39596e-08
4.36691e-07 3.30622e-07 7.16885e-08
4.30522e-07 3.19193e-07 5.9371e-08
8.11936e-07 3.2127e-07 2.38319e-07
8.23615e-07 3.33612e-07 2.45316e-07
-4.60388e-07 3.07439e-07 -8.0386e-08
-4.66998e-07 3.03348e-07 -8.72154e-08
-4.65184e-07 2.9506e-07 -8.47905e-08
3.74054e-07 4.82801e-07 -2.70584e-07
1.73039e-06 -1.89794e-08 7.30037e-08
1.6909e-06 -1.97304e-08 3.03622e-08
-4.84445e-07 8.79915e-09 -7.96812e-09
8.1909e-08 3.86152e-07 1.32971e-08
8.11288e-08 3.69406e-07 9.95334e-09
-3.84255e-07 2.51234e-07 -8.35722e-08
-3.36866e-07 2.59011e-07 7.20671e-08
1.72864e-06 -2.46836e-08 7.51678e-08
-5.96342e-07 1.30749e-07 -6.16164e-08
3.02275e-07 3.48223e-07 -1.0473e-07
2.74497e-07 3.51352e-07 -1.03703e-07
-5.0898e-07 1.56713e-07 5.57913e-08
-5.10634e-07 1.53683e-07 5.60102e-08
-5.51015e-07 -1.1673e-07 5.96674e-08
-5.47246e-07 -1.28711e-07 6.42536e-08
-5.93516e-07 1.26462e-07 -6.24607e-08
-1.96712e-07 3.48481e-07 -3.37418e-08
-2.89431e-07 2.79714e-07 -4.75294e-08
-3.09082e-07 2.66956e-07 -4.00046e-08
-1.88102e-07 3.53169e-07 -2.68199e-08
-4.07606e-08 3.5036e-07 -2.88642e-08
3.40318e-07 3.25916e-07 -5.54403e-09
-2.94728e-10 3.7211e-07 -2.51007e-08
2.56217e-08 3.80092e-07 -2.97744e-08
-2.61913e-07 2.93041e-07 5.05236e-08
-4.04328e-08 3.55671e-07 -3.13793e-08
-2.3997e-08 4.88175e-07 -1.60317e-07
-2.59435e-08 4.94585e-07 -1.69286e-07
-1.91771e-08 3.49745e-07 -2.62086e-08
-2.9033e-07 2.88406e-07 4.44397e-08
-4.75881e-07 1.1495e-07 -1.71894e-08
8.09427e-07 2.75386e-07 -1.95932e-07
8.23738e-07 2.63126e-07 -1.78412e-07
-4.79663e-07 2.25835e-07 -9.23075e-08
1.78176e-07 3.53057e-07 -6.4939e-08
-4.68703e-07 2.2666e-07 -9.07994e-08
-4.73581e-07 2.36399e-07 -9.64926e-08
1.16343e-07 3.51684e-07 -9.19822e-09
-5.48998e-07 -8.40886e-08 5.75143e-08
2.65766e-07 3.31635e-07 1.73733e-08
2.94883e-07 3.33852e-07 1.7458e-08
1.56396e-06 3.26298e-08 1.29714e-07
1.6207e-06 1.55559e-08 1.02969e-07
-4.34976e-07 1.97408e-07 9.98423e-10
-4.31103e-07 1.97621e-07 -9.89618e-10
5.08262e-07 3.31823e-07 1.03501e-07
1.23184e-06 1.69034e-07 -2.91583e-07
1.23414e-06 1.73991e-07 -2.79268e-07
5.1342e-07 3.45043e-07 1.20843e-07
1.56845e-06 2.62095e-08 1.29402e-07
-4.814e-07 1.63458e-07 4.39073e-08
-4.35701e-07 -8.19613e-08 -5.69095e-08
-4.28684e-07 -8.66876e-08 -6.02041e-08
-3.15606e-07 2.75122e-07 7.04103e-08
-3.12469e-07 2.80105e-07 6.57758e-08
4.33879e-07 2.9694e-07 3.21492e-08
4.29015e-07 3.00938e-07 2.17973e-08
-4.81126e-07 1.60197e-07 4.58316e-08
-4.70194e-07 1.67615e-07 4.99977e-08
-3.24673e-07 2.88502e-07 -7.32397e-08
-7.19052e-08 -3.06118e-07 1.60167e-07
1.35884e-06 1.64385e-07 1.56349e-07
1.37617e-06 1.69104e-07 1.86979e-07
-3.22362e-07 -2.72487e-07 7.49923e-08
-3.24525e-07 2.87e-07 -7.75968e-08
-4.75993e-07 2.71792e-07 -9.83011e-08
-4.8688e-07 2.69392e-07 -9.5611e-08
-4.81358e-07 2.59203e-07 -9.48974e-08
-2.44862e-07 -2.03055e-07 -7.51822e-09
-2.58705e-07 -1.98177e-07 -1.02783e-08
-4.10612e-07 -2.79959e-07 -4.25092e-08
-2.60383e-07 -1.96948e-07 -1.29673e-08
-3.35229e-07 2.64684e-07 6.96584e-08
-1.93959e-07 -2.0967e-07 1.38968e-08
-1.96383e-07 -2.07097e-07 1.10894e-08
-3.32932e-07 2.57021e-07 6.74821e-08
1.49148e-08 3.60303e-07 -1.3072e-08
-1.41512e-07 3.65609e-07 -3.06064e-08
-1.12583e-07 3.78611e-07 -3.14913e-08
-8.3281e-09 3.48472e-07 -1.73226e-08
-3.63359e-07 2.58689e-07 7.51756e-08
-1.73514e-07 -1.38373e-07 -1.31083e-08
-1.74955e-07 -1.40303e-07 -1.58885e-08
-3.51474e-07 2.62231e-07 7.3937e-08
-3.53828e-07 2.71295e-07 7.80592e-08
1.4505e-07 -8.95593e-08 6.66388e-08
1.41774e-07 -8.644e-08 5.7283e-08
-8.29824e-08 -1.08907e-07 2.45385e-08
-8.08159e-08 -1.04752e-07 2.27761e-08
6.14967e-07 4.0451e-07 -3.32209e-07
6.12266e-07 3.93946e-07 -3.19199e-07
-2.74536e-07 2.91289e-07 4.72189e-08
-8.77727e-08 -1.03385e-07 2.1857e-08
-5.93825e-07 5.27883e-09 1.62836e-08
-5.98163e-07 8.38649e-09 1.56471e-08
8.08303e-07 -1.92742e-07 -2.95512e-07
-4.67303e-07 -2.40287e-07 1.66592e-08
-4.44741e-07 -2.88637e-07 -1.15886e-08
-4.33863e-07 -3.1084e-07 -1.60445e-08
7.80334e-07 -2.10687e-07 -3.04128e-07
7.66041e-07 -1.98025e-07 -2.92698e-07
-4.85595e-07 -6.42707e-08 1.46196e-09
-4.77866e-07 -4.43839e-08 3.15544e-09
1.8238e-07 3.56756e-07 1.77465e-08
6.49973e-07 3.94761e-07 2.46036e-07
6.37697e-07 3.96619e-07 2.35929e-07
3.8817e-07 -3.35698e-07 -3.16993e-07
3.55225e-07 -3.2771e-07 -2.98005e-07
7.56744e-07 2.35356e-07 -7.59325e-08
7.82653e-07 2.3146e-07 -4.4201e-08
-2.22464e-07 3.34488e-07 2.63925e-08
-2.31377e-07 3.3322e-07 2.9063e-08
-2.24817e-07 3.37813e-07 2.18796e-08
1.2509e-08 3.72594e-07 -1.77745e-08
-8.55488e-09 3.78701e-07 -1.11906e-08
-4.35265e-08 3.51215e-07 -2.77897e-08
-4.39104e-08 3.42299e-07 -2.84413e-08
1.01712e-08 3.63435e-07 -2.45969e-08
-1.95059e-08 3.67531e-07 -2.53185e-08
-6.57763e-09 3.80227e-07 -1.39518e-08
-9.96519e-08 -1.86674e-07 5.00084e-08
-9.66557e-08 -1.81486e-07 4.40844e-08
-8.57536e-08 -2.35609e-07 9.5426e-08
-8.27769e-08 -2.3031e-07 8.97337e-08
-1.40497e-08 3.76613e-07 -6.44854e-09
-2.19377e-07 3.29866e-07 3.63362e-08
-2.15484e-07 3.31343e-07 2.9369e-08
-1.83431e-07 3.25855e-07 4.05187e-08
-1.83542e-07 3.35693e-07 4.03404e-08
-3.50292e-07 -2.79508e-07 2.4002e-08
-2.09243e-07 3.31265e-07 3.76496e-08
3.85655e-07 -1.52914e-07 -1.37781e-07
3.36362e-07 -1.79742e-07 -1.56672e-07
-2.84757e-07 2.88334e-07 5.10486e-08
6.78769e-08 4.1278e-07 -2.26168e-08
-3.39264e-07 -1.46263e-07 -3.83999e-08
-1.93681e-07 3.31586e-07 3.24288e-08
-5.58487e-07 1.64062e-07 -8.58455e-08
-5.63734e-07 1.53585e-07 -8.21534e-08
1.1139e-06 1.9191e-07 -5.85293e-08
-5.55142e-07 1.59394e-07 -8.40199e-08
-1.55178e-07 3.67982e-07 -2.64799e-08
-1.27736e-07 3.81381e-07 -2.81917e-08
-3.9016e-07 -6.11191e-08 4.44878e-08
-3.9693e-07 -5.69958e-08 3.96512e-08
6.12078e-07 4.32786e-07 3.5517e-07
5.83252e-07 4.55561e-07 3.61857e-07
2.42816e-07 3.50316e-07 -7.99473e-08
-5.00354e-07 1.58544e-07 5.47589e-08
-4.96145e-07 1.5388e-07 5.20564e-08
-5.46287e-07 -1.78927e-07 2.66154e-08
-5.46837e-07 -1.62913e-07 2.50397e-08
-4.96185e-07 1.58443e-07 5.27918e-08
-8.94915e-08 5.25413e-07 1.08266e-07
-3.916e-07 7.85314e-08 -2.10904e-08
-3.96188e-07 9.41711e-08 -2.43601e-08
-1.3092e-07 5.24435e-07 9.84752e-08
3.88334e-07 -1.15157e-07 -9.76089e-08
4.12459e-07 -1.12436e-07 -8.61176e-08
1.52676e-06 8.15942e-08 8.23278e-08
1.54762e-06 7.45955e-08 5.88416e-08
-3.33697e-07 4.4286e-07 -8.93557e-10
7.86007e-07 2.57982e-07 9.61427e-08
8.28827e-08 5.04351e-07 -1.88416e-07
6.30119e-08 5.20532e-07 -1.79559e-07
-3.08739e-07 4.57976e-07 1.8913e-08
-3.01948e-07 4.44611e-07 9.88007e-09
-4.10463e-08 3.52788e-07 -2.79848e-08
-2.78096e-08 3.78602e-07 -2.83205e-08
-6.17171e-07 -1.97102e-09 -2.82894e-08
-6.17476e-07 -1.87664e-09 -2.59639e-08
3.57366e-07 3.2204e-07 -8.74123e-08
3.90439e-07 3.07934e-07 -1.51049e-08
3.9832e-07 3.00509e-07 -8.9126e-09
4.05917e-07 3.03476e-07 -4.68523e-09
-4.90613e-07 1.94795e-07 1.70996e-08
2.69045e-07 3.39548e-07 1.85915e-08
5.30231e-07 2.63783e-07 -1.05143e-08
5.43464e-07 2.65933e-07 -1.40727e-08
2.3055e-07 3.39707e-07 2.15951e-08
-8.55621e-09 -1.25386e-07 8.30378e-09
-5.42473e-09 -1.25883e-07 2.69793e-09
2.22697e-07 3.44505e-07 1.41307e-08
6.71752e-07 3.27467e-07 -2.27168e-07
-3.71985e-07 -2.4343e-07 -5.4709e-08
-3.72862e-07 -2.54259e-07 -5.68518e-08
6.64809e-07 3.1588e-07 -2.10329e-07
7.197e-07 3.0809e-07 -2.21489e-07
7.414e-07 2.9324e-07 -2.0337e-07
6.50472e-07 3.29436e-07 -2.18917e-07
-3.66251e-07 -1.64078e-07 3.86361e-08
-3.68114e-07 -1.48162e-07 3.3934e-08
7.30744e-08 4.14105e-07 -2.37254e-08
-5.28432e-09 -1.83456e-07 -2.44578e-08
9.58145e-09 -1.82357e-07 -2.61989e-08