# vtk DataFile Version 2.0
S, Created by Mohamad Ibrahim Cheikh
ASCII
DATASET UNSTRUCTURED_GRID
POINTS 23916 double
-138.333 68.538 101.901
-141.31 66.4219 102.798
-299.233 -59.4058 54.1523
-296.26 -58.6111 56.9474
-349.065 25.5591 43.0468
2.34231 4.72621 131.913
-310.458 63.1763 40.4032
-309.993 -54.4373 51.9184
-310.395 61.1313 43.49
-340.228 -28.2813 49.5197
-337.031 -27.7078 52.4349
-342.876 -24.3771 49.359
-341.389 -21.2337 52.0026
64.9513 39.9864 -123.728
68.5178 42.2557 -122.734
-330.957 -43.7765 45.7985
-332.913 -40.5641 47.0051
-19.2988 19.0832 130.439
-358.24 6.97572 -40.7818
-359.714 3.75103 -39.5993
-339.842 20.5123 53.5111
-158.681 -103.327 60.5366
-158.702 -101.532 63.4964
-312.041 -68.1528 -29.2943
-314.683 -67.7951 -26.5346
-156.196 72.5012 -95.8155
-152.639 74.2109 -95.2065
-340.25 23.7135 51.8449
-283.2 32.3781 80.972
-249.766 83.9607 52.3167
-245.77 85.5071 52.1288
-162.708 63.6169 100.676
-160.428 65.8714 99.6692
-285.906 29.3514 80.9613
-334.86 -0.382353 60.7916
-332.379 2.55413 62.3849
-245.017 99.5998 12.4098
-246.883 -13.3965 98.9051
-249.872 -15.4426 97.6805
-213.345 -93.4887 -55.7791
-217.135 -93.7632 -53.4804
-212.801 -86.5062 66.3061
-216.003 -87.0562 64.2878
-205.052 -92.9769 60.2624
-217.304 8.50663 107.566
-215.554 12.2113 107.64
-208.455 -93.334 58.247
-186.789 109.572 33.8577
-187.598 108.432 36.8488
-283.849 1.04726 86.9407
-282.099 4.59246 87.5209
321.596 19.3016 -66.2508
323.333 15.8331 -66.1355
-261.304 26.027 91.5809
-263.526 22.8946 91.6381
12.1423 7.25708 -131.732
-315.445 -54.1841 -48.0165
-313.235 -53.6417 -50.3407
-323.844 -54.2953 -40.4494
191.595 74.5768 85.8373
-321.078 -54.4409 -42.8798
33.1774 95.1989 -90.6995
-237.974 101.359 -14.7313
-241.764 100.198 -15.1084
-321.821 -55.4643 40.8384
-324.067 -53.0992 41.7962
-26.8742 11.9098 -131.125
-130.638 119.757 31.5081
-133.726 118.855 33.2873
11.3223 13.9063 131.206
7.63325 16.0905 130.988
-241.171 33.0039 95.9884
-244.076 30.6164 95.8804
-309.847 45.4407 60.043
-244.513 32.9565 -94.9639
-15.1139 20.7641 130.249
-246.632 35.7136 -93.2812
-243.244 -15.2234 99.7412
-243.037 -19.1551 99.1235
301.355 -14.19 78.1292
300.169 -10.9015 79.2085
-297.262 61.4029 53.2463
-301.078 60.5557 51.5651
-112.101 117.739 44.9768
-109.874 116.811 47.9709
-241.079 75.7127 67.6467
-245.394 74.0951 67.5381
-312.851 42.2856 60.4398
-349.816 21.6208 44.4361
-360.584 16.4223 -35.1544
-362.986 16.3012 -32.047
-188.728 -83.7971 -77.7256
-189.872 -81.1488 -80.1567
8.94659 -8.9425 131.66
-337.836 36.6565 -45.9011
-240.486 -63.0792 -79.7774
-242.718 -60.5803 -80.8789
-200.617 83.6416 74.1661
-197.017 83.3478 75.6634
-190.874 -76.3742 -84.4423
-161.742 94.5061 72.7307
-343.536 34.7245 -42.0638
-248.809 87.0643 47.5884
-251.564 85.1548 49.2413
-298.128 24.1215 -77.2044
61.5423 -7.95085 -129.989
-300.39 21.1685 -76.9968
-350.423 -30.4045 38.2829
-347.744 -32.8081 39.2758
-322.395 62.9517 -27.1272
31.1265 18.2506 -130.278
-318.985 64.87 -27.5391
-340.606 37.0722 -42.9677
-199.6 107.767 -30.5403
-195.943 108.802 -29.7579
-194.013 110.133 -26.1969
-197.747 109.776 -24.203
-169.832 -117.353 -10.9996
-173.035 -116.066 -16.9405
-346.514 36.6496 37.1534
-294.447 -74.5579 -35.3624
-290.999 -76.0101 -35.7631
-172.809 -116.633 -12.8258
35.7752 21.4791 129.638
-26.716 9.03074 131.359
-23.4328 10.7078 131.309
-249.287 -22.7641 96.4235
69.0558 -14.9567 128.905
-24.3319 0.697196 131.723
-251.214 -19.2231 96.582
-262.38 42.9113 84.5819
-292.641 -68.8451 46.8998
-258.225 44.8746 85.1267
-22.5242 -2.47409 131.741
-256.605 47.6715 84.2012
-26.5481 5.81298 131.544
-257.62 85.7383 -44.1298
-257.655 87.4602 -40.5836
-193.581 60.5368 95.7673
-196.872 59.8491 95.3774
-250.079 88.4154 44.1588
-261.266 -82.1249 48.1913
-295.601 -64.2603 50.9576
-295.839 -66.7102 47.5242
-284.007 18.9647 -84.7888
-285.803 15.7466 -84.7082
301.394 54.8866 -57.359
303.789 52.7511 -57.8145
304.334 50.0645 -59.8175
-38.7767 -19.7979 -129.8
-268.311 92.1465 -10.9144
-210.705 92.9549 57.861
-213.25 91.2192 59.4597
-77.8571 121.215 -44.5969
-359.572 26.9899 -29.4331
-270.325 91.7555 -7.63259
-375.442 7.72231 10.3444
-376.378 5.19043 7.3142
-267.943 92.7678 -5.33137
-351.465 46.4718 -11.8674
-348.935 49.0029 -10.7748
177.731 94.5105 68.0028
176.373 96.8756 65.043
172.072 97.6184 65.3423
-360.569 -7.26987 -38.1309
-357.86 -8.22729 -40.9562
-85.5365 119.046 -48.5421
-327.475 62.0444 21.0975
-329.809 60.2786 21.7549
-331.248 58.1959 24.5673
-330.059 57.6272 27.6701
116.583 -119.668 -37.9408
-331.514 -54.01 -32.4292
-334.762 -52.235 -31.2294
114.004 -119.059 -40.7163
110.189 -119.529 -40.6242
-192.444 88.0977 71.6143
-192.756 85.794 74.2596
-352.91 -34.9628 30.8779
-350.133 -38.0885 31.0511
-82.2463 120.244 -46.2293
-315.901 -62.2547 36.4774
-261.496 -28.4794 -90.7805
-312.361 -63.2608 38.4267
-309.6 -65.8959 36.6943
-327.374 -1.48648 -65.5778
-329.479 -3.89591 -64.1735
-179.617 -103.89 -51.7781
-328.826 -7.84692 -64.2218
-238.151 -93.5361 41.6081
-283.532 64.691 58.2825
-286.399 62.4095 59.0489
-328.161 -33.2709 -55.9694
-328.643 -36.1881 -53.7698
-326.004 -41.9887 -51.4706
-323.563 -45.0905 -50.7271
-307.447 -33.9531 -68.5463
-311.523 -32.5313 -66.9644
-303.266 45.114 64.2552
-304.738 41.1239 66.0549
-201.505 107.3 30.651
-205.063 106.407 30.8764
-280.189 12.708 -87.47
-279.067 9.0912 -88.3555
-280.853 25.5404 -84.3481
-278.914 28.4404 -84.2075
-184.21 85.9195 -76.7292
-183.422 83.4632 -79.6171
-289.701 -54.4511 -64.6833
-285.813 -55.6867 -65.74
-184.757 -105.053 -46.9961
-164.747 -117.419 17.7172
-255.666 -59.1835 -76.9327
-295.317 81.8653 -6.68167
-260.308 65.8508 69.2224
-296.923 80.7449 -10.5074
-183.685 -103.801 -50.1857
-179.843 -114.237 20.3459
59.4098 5.61626 130.232
56.3667 7.64355 130.294
-176.899 -115.33 17.0814
-70.9167 -116.809 -56.2481
-229.317 63.6731 83.2561
-228.022 66.9627 81.0822
-236.21 -82.1262 -62.0345
-233.715 -80.8562 -64.7982
-343.648 30.2434 45.2882
-232.956 61.8631 83.3837
60.9279 76.0394 -105.771
-15.2853 -14.7866 131.06
-221.455 68.8982 -81.6868
-219.912 66.7993 -83.9103
-358.772 17.096 37.0515
33.0396 -16.1362 -130.499
57.4847 78.1362 -104.471
-230.841 -45.0659 94.1757
-231.522 -47.8943 92.5612
219.158 -103.99 27.0126
215.096 -105.1 26.7135
213.623 -106.231 23.4927
-71.0704 124.69 -35.468
-269.094 88.3672 -27.3839
-271.349 86.6405 -30.0472
-71.6794 123.432 -39.4915
-317.699 -1.7466 -71.1597
337.801 24.2639 53.5238
-41.5045 9.95279 -130.821
-45.4425 10.9241 -130.583
-292.263 74.9131 36.8009
334.18 19.7572 57.9749
337.138 21.2784 55.2767
-278.071 -15.6556 87.819
-275.057 -18.143 88.4997
-211.089 -1.5852 109.39
-212.234 -4.9119 109.019
-89.4164 108.679 68.0728
-92.2239 109.56 66.1759
-377.064 -3.57556 -2.08613
-302.277 -70.846 -34.9027
-300.548 -73.2792 -31.5455
-231.764 -90.1214 52.2097
-376.359 -8.85392 1.93961
-376.621 -7.37775 -1.90233
-271.445 -91.0016 11.0332
-279.747 -88.1869 8.11322
-274.22 -89.7206 12.9567
-277.985 -88.4889 11.5233
9.82404 15.6039 -131.029
-351.991 -13.9559 45.3917
-250.15 47.9435 86.3964
-246.452 49.8165 86.6374
-343.515 54.3026 -5.30341
-346.109 52.4211 -3.14372
-251.864 -64.6747 -73.9915
0.102927 2.31166 131.98
-351.904 -10.6075 -46.3691
-352.569 -6.27214 -46.5398
-315.496 66.157 29.3394
-148.529 83.1434 -88.3757
-251.474 -35.9561 -91.5901
-247.99 -36.3226 -92.603
-143.013 87.5991 -85.1257
-144.991 85.0683 -87.256
-303.449 -67.9099 39.2259
-306.37 -65.8879 39.8896
-300.181 -68.2418 41.6535
-330.515 -18.3828 60.9244
-332.168 -24.5163 57.5721
-330.156 -21.8746 60.002
-311.484 -59.0471 45.3759
-314.587 -57.4178 44.8423
-316.872 -57.8812 42.1995
336.834 -17.2049 -56.8982
339.496 -14.9496 -55.5828
-361.904 -33.8343 -15.6191
-294.33 77.7858 27.6979
-364.077 -30.3797 -16.5112
-289.807 72.9364 42.6803
-293.338 70.9086 43.1415
-292.316 29.8117 -77.934
-289.864 31.7183 -78.3019
-334.303 10.8598 -60.1947
-332.073 13.8404 -61.0881
-264.815 84.5543 -41.0963
-261.595 86.491 -39.5623
-296.914 78.6362 21.1446
-291.847 81.8535 17.2065
-254.69 95.7064 17.96
-293.709 80.2495 20.5562
-343.663 21.4315 -50.0516
-346.843 21.031 -47.4693
-347.123 24.4919 -45.5185
298.454 46.6708 65.8817
301.94 45.7477 64.5709
-42.1229 84.3478 100.46
-287.614 -64.2106 56.3322
302.971 42.1377 66.4105
-284.31 -53.0266 -68.672
-316.347 69.7658 17.4497
-318.543 67.7887 20.1419
-281.46 -52.4399 -70.5345
-278.645 -54.8805 -70.0445
-298.348 78.8758 -17.4604
-294.593 80.6863 -16.9882
-335.963 57.8869 -15.9442
-293.456 81.8728 -13.3256
-140.241 -103.817 65.1005
-137.278 -105.068 63.8548
-323.546 67.3601 -8.38786
-322.521 66.9733 -14.2616
-324.478 66.3105 -11.6915
-334.158 4.16823 -61.1213
-332.007 1.45284 -62.6621
-332.332 7.87248 -61.9694
-320.474 38.9183 57.7519
-321.06 35.0015 59.8235
-282.061 69.4129 -53.53
-285.664 68.8647 -51.8731
-179.413 106.02 -47.3588
-176.615 105.414 -49.9295
-167.297 -48.2747 -108.014
-168.457 -51.4046 -106.336
-172.347 -52.6403 -104.959
-159.882 78.4876 90.1893
58.0609 129.721 -13.5554
54.1634 129.951 -13.3283
-23.4522 3.67203 131.694
-286.034 21.6927 -83.2872
-289.184 21.0954 -82.1003
-251.915 -61.4023 -76.7085
-284.227 -53.2102 68.5722
61.1862 129.793 -10.9284
-120.701 -92.5735 -84.0861
-292.913 59.9862 57.6315
-294.146 57.1938 59.6657
-218.933 -93.1916 53.5818
-219.909 -94.6753 50.397
10.3815 -71.7032 -110.768
13.9306 -71.1458 -111.079
-121.951 -95.1122 -80.9746
-369.185 -13.8566 -23.3459
-342.278 -38.0748 -40.3864
-340.34 -42.1076 -38.336
-371.094 -11.7285 -20.6497
-348.241 3.66767 -50.6282
-337.011 55.4868 -20.9768
-307.515 16.386 74.6846
-307.595 19.9125 73.7818
-328.574 -33.9367 55.2682
-344.889 3.34153 -53.3848
-132.857 47.5082 114.044
-129.369 49.2334 113.803
-342.709 6.17772 -54.8311
-341.751 -36.6374 42.221
-47.1341 2.91359 130.933
-183.378 108.923 37.983
-179.907 110.03 36.8074
-206.339 -75.0333 -81.126
-317.524 41.7684 57.7562
-212.744 -74.1368 -79.9158
-209.288 -72.9759 -82.0725
-340.892 24.9862 -50.7184
1.18332 -83.5691 -102.177
-324.884 46.5095 -48.357
-324.086 49.6988 -45.7706
32.8441 129.237 -24.286
38.6288 129.868 -19.3802
-313.948 -73.1221 -3.1599
[...]
POINT_DATA 23916
VECTORS F double
1.48616e-07 8.7344e-08 -3.40469e-08
1.45283e-07 9.03006e-08 -3.38961e-08
-1.19185e-07 9.4744e-08 2.3304e-08
-1.1869e-07 9.6667e-08 2.38947e-08
7.54413e-08 1.33983e-07 -4.655e-09
-4.04639e-08 2.28958e-08 -7.32346e-10
1.57169e-07 1.008e-07 -9.75851e-09
-1.13012e-07 9.94542e-08 2.16673e-08
1.50779e-07 1.00177e-07 -9.06193e-09
-6.49398e-08 1.23211e-07 1.57419e-08
-6.37116e-08 1.24342e-07 1.55683e-08
-5.78037e-08 1.29005e-07 1.45519e-08
-4.85494e-08 1.27271e-07 1.29462e-08
3.18107e-08 -1.84853e-08 -3.92963e-09
3.50189e-08 -2.20721e-08 -5.20564e-09
-9.93178e-08 1.10475e-07 1.77285e-08
-9.2838e-08 1.15001e-07 1.87421e-08
-1.38413e-08 4.7579e-08 -7.21152e-09
2.8071e-08 1.44572e-07 -5.46085e-09
1.82857e-08 1.47663e-07 -6.34943e-09
5.93204e-08 1.30014e-07 -3.71388e-09
-1.94703e-07 5.06928e-08 2.40416e-08
-1.90713e-07 5.16346e-08 2.42063e-08
-1.4243e-07 8.8289e-08 -1.96577e-08
-1.41836e-07 8.73701e-08 -1.72903e-08
1.65762e-07 8.06054e-08 2.79088e-08
1.66799e-07 8.0029e-08 2.96401e-08
6.86602e-08 1.31325e-07 -4.89914e-09
8.1125e-08 1.084e-07 -8.60788e-09
1.93421e-07 7.72613e-08 -1.09393e-08
1.94568e-07 7.61536e-08 -1.2607e-08
1.38755e-07 9.44248e-08 -3.22117e-08
1.42464e-07 9.20246e-08 -3.27446e-08
7.47e-08 1.12668e-07 -8.54938e-09
5.14916e-09 1.32928e-07 4.3087e-09
1.19401e-08 1.2942e-07 2.48998e-09
2.29924e-07 6.96734e-08 -3.41014e-09
-2.08661e-08 1.13598e-07 9.00988e-09
-2.16749e-08 1.12033e-07 1.09235e-08
-1.71425e-07 6.82641e-08 -3.41405e-08
-1.70922e-07 6.65162e-08 -3.16562e-08
-1.64162e-07 7.23413e-08 2.98766e-08
-1.63704e-07 7.06333e-08 2.83082e-08
-1.76765e-07 6.52866e-08 2.70902e-08
2.30858e-08 1.1613e-07 -3.47399e-09
3.52584e-08 1.1197e-07 -4.0582e-09
-1.76727e-07 6.4106e-08 2.52883e-08
2.51082e-07 5.52213e-08 -9.12006e-09
2.4609e-07 5.53685e-08 -9.54143e-09
9.69528e-09 1.18496e-07 2.44808e-09
1.8722e-08 1.15253e-07 1.34049e-09
2.41721e-08 -7.83036e-08 -8.4476e-09
1.91283e-08 -8.12544e-08 -8.00339e-09
6.46937e-08 1.07454e-07 -7.93873e-09
5.65475e-08 1.12205e-07 -8.12392e-09
-2.67923e-08 2.63922e-08 1.15157e-09
-1.10216e-07 1.00001e-07 -2.41976e-08
-1.10011e-07 1.01798e-07 -2.46675e-08
-1.15666e-07 1.01238e-07 -2.25168e-08
8.87171e-08 -5.64475e-08 2.47984e-08
-1.15799e-07 1.02411e-07 -2.38652e-08
1.65508e-07 2.66676e-08 3.54027e-08
2.32332e-07 6.73809e-08 4.11375e-09
2.30876e-07 6.89013e-08 4.63389e-09
-1.20727e-07 9.93629e-08 1.84724e-08
-1.17412e-07 1.03151e-07 1.95916e-08
-1.34504e-08 6.66216e-08 6.38859e-09
2.81642e-07 4.0183e-08 -9.76308e-09
2.77889e-07 4.18574e-08 -1.27776e-08
-2.39326e-08 1.79038e-08 -1.64472e-09
-2.16398e-08 2.26514e-08 -2.62806e-09
7.63841e-08 1.04296e-07 -1.23642e-08
7.35562e-08 1.05996e-07 -1.09216e-08
1.14564e-07 1.0758e-07 -9.03594e-09
8.48648e-08 1.04447e-07 9.49525e-09
-1.25597e-08 4.59028e-08 -7.49613e-09
8.80719e-08 1.05905e-07 1.20378e-08
-2.06902e-08 1.13358e-07 1.11242e-08
-3.09148e-08 1.11828e-07 1.23302e-08
-3.17767e-08 -7.63715e-08 1.13515e-09
-2.68721e-08 -7.45894e-08 2.20193e-09
1.49437e-07 9.87471e-08 -1.17337e-08
1.48035e-07 9.84547e-08 -9.79875e-09
2.79932e-07 4.00462e-08 -1.94114e-08
2.78178e-07 3.94063e-08 -1.79496e-08
1.71436e-07 7.98607e-08 -1.45827e-08
1.70137e-07 8.06411e-08 -1.27865e-08
1.0824e-07 1.12083e-07 -9.82178e-09
6.29285e-08 1.35151e-07 -5.10708e-09
5.53161e-08 1.48102e-07 -2.80274e-10
5.44094e-08 1.48305e-07 -1.43188e-11
-1.55394e-07 7.60482e-08 -3.57935e-08
-1.48722e-07 7.90581e-08 -3.6906e-08
-6.22791e-08 1.49929e-08 1.53648e-09
1.04276e-07 1.24885e-07 5.76952e-09
-1.11199e-07 9.23924e-08 -3.20146e-08
-1.08072e-07 9.58763e-08 -3.21066e-08
1.87932e-07 7.51837e-08 -2.25517e-08
1.89537e-07 7.68731e-08 -2.42577e-08
-1.40313e-07 8.37126e-08 -3.68835e-08
2.16145e-07 6.84033e-08 -3.0034e-08
1.0088e-07 1.27723e-07 4.56843e-09
2.00283e-07 7.54334e-08 -9.80475e-09
1.95837e-07 7.80949e-08 -1.25616e-08
6.49508e-08 1.13943e-07 4.89329e-09
-4.74487e-08 -1.72102e-08 -1.69763e-09
5.88196e-08 1.17797e-07 4.29076e-09
-7.79839e-08 1.28174e-07 1.44023e-08
-8.09529e-08 1.24121e-07 1.59294e-08
1.63433e-07 1.04915e-07 5.66649e-09
-9.07565e-09 1.0155e-08 1.15715e-09
1.65682e-07 1.02719e-07 7.00579e-09
1.04524e-07 1.25546e-07 6.87881e-09
2.45941e-07 5.83989e-08 9.27797e-09
2.47165e-07 5.69836e-08 9.0928e-09
2.52518e-07 5.61869e-08 7.25168e-09
2.50769e-07 5.65806e-08 5.7832e-09
-2.14085e-07 3.8689e-08 -8.08377e-09
-2.10752e-07 4.01688e-08 -1.16589e-08
1.02944e-07 1.2795e-07 -8.66755e-09
-1.48074e-07 8.27484e-08 -2.35163e-08
-1.48367e-07 8.10762e-08 -2.45148e-08
-2.12976e-07 3.98272e-08 -1.08556e-08
-1.0822e-08 -2.74351e-09 8.20209e-10
-3.03887e-08 4.99796e-08 -4.19271e-09
-2.91426e-08 4.8621e-08 -4.60157e-09
-3.7007e-08 1.09684e-07 1.41813e-08
-6.14961e-08 -2.61931e-08 9.94221e-10
-4.52177e-08 4.57289e-08 -1.26464e-09
-3.10008e-08 1.13893e-07 1.27964e-08
1.00481e-07 9.85985e-08 -1.18607e-08
-1.36732e-07 8.64458e-08 2.2442e-08
1.01258e-07 9.97643e-08 -1.49853e-08
-5.12302e-08 4.17348e-08 -2.88559e-10
1.09581e-07 9.63171e-08 -1.36451e-08
-3.74369e-08 4.92502e-08 -3.10141e-09
1.99185e-07 7.78493e-08 8.8886e-09
2.04467e-07 7.81756e-08 9.5447e-09
1.36733e-07 9.57893e-08 -2.67122e-08
1.35916e-07 9.45608e-08 -2.49887e-08
2.04062e-07 7.64158e-08 -1.15152e-08
-1.58064e-07 7.59202e-08 2.4464e-08
-1.2868e-07 9.04993e-08 2.27351e-08
-1.35561e-07 8.9764e-08 2.26873e-08
5.41713e-08 1.11943e-07 2.82311e-09
4.51647e-08 1.15579e-07 2.82877e-09
7.46265e-08 -6.58015e-08 -1.4957e-08
7.31172e-08 -6.80072e-08 -1.50137e-08
6.79669e-08 -6.91418e-08 -1.55326e-08
-6.44311e-08 6.24206e-08 -7.16425e-09
2.156e-07 7.71706e-08 2.62512e-09
2.10217e-07 6.6689e-08 -1.34143e-08
2.0685e-07 6.87177e-08 -1.45958e-08
2.9128e-07 2.97156e-08 1.85093e-08
8.60477e-08 1.42072e-07 1.57825e-09
2.14404e-07 7.75476e-08 2.55772e-09
2.69233e-08 1.63001e-07 -2.045e-09
1.82259e-08 1.63736e-07 -1.36146e-09
2.16978e-07 7.68123e-08 1.47949e-09
1.35583e-07 1.26376e-07 3.2663e-09
1.40563e-07 1.22911e-07 1.6774e-09
1.26734e-07 -5.02673e-08 2.9309e-08
1.33444e-07 -4.81705e-08 2.74439e-08
1.3322e-07 -4.84864e-08 2.94855e-08
-1.55619e-08 1.45179e-07 -9.66346e-09
-1.62945e-08 1.44193e-07 -1.15349e-08
2.83286e-07 3.41018e-08 2.25171e-08
1.61652e-07 1.06117e-07 -4.87631e-09
1.58674e-07 1.08262e-07 -5.46156e-09
1.52827e-07 1.09283e-07 -6.59144e-09
1.51498e-07 1.0875e-07 -5.24088e-09
-1.86253e-07 -2.3053e-08 2.64254e-09
-1.20209e-07 1.02791e-07 -2.07464e-08
-1.19244e-07 1.04832e-07 -1.88505e-08
-1.86731e-07 -2.27733e-08 2.57992e-09
-1.87244e-07 -2.20729e-08 2.76515e-09
1.99703e-07 7.34641e-08 -2.4671e-08
1.92498e-07 7.38452e-08 -2.41406e-08
-9.29126e-08 1.25657e-07 1.22689e-08
-9.73823e-08 1.20309e-07 1.3137e-08
2.89282e-07 3.12759e-08 1.83398e-08
-1.33162e-07 9.27474e-08 1.71014e-08
-4.64093e-08 1.10363e-07 -1.82559e-08
-1.33367e-07 9.26267e-08 1.97608e-08
-1.36879e-07 8.87545e-08 1.7993e-08
7.58023e-09 1.2672e-07 -7.50545e-09
2.5455e-09 1.29049e-07 -9.43454e-09
-1.91068e-07 5.62041e-08 -3.16221e-08
-8.39583e-09 1.26606e-07 -1.02063e-08
-1.74728e-07 6.42133e-08 2.19121e-08
1.5348e-07 9.34043e-08 -1.22619e-08
1.49819e-07 9.64605e-08 -1.29856e-08
-6.85626e-08 1.18641e-07 -2.1309e-08
-7.75738e-08 1.18436e-07 -2.16618e-08
-8.9392e-08 1.13487e-07 -2.3262e-08
-9.41295e-08 1.08613e-07 -2.30364e-08
-6.21606e-08 1.1462e-07 -2.26408e-08
-6.20038e-08 1.15212e-07 -2.06555e-08
1.13974e-07 1.06871e-07 -9.17619e-09
1.01607e-07 1.09453e-07 -1.07523e-08
2.44283e-07 5.83297e-08 -7.57724e-09
2.43399e-07 5.91398e-08 -5.8982e-09
3.97108e-08 1.15389e-07 1.19045e-09
3.26576e-08 1.1307e-07 -9.94238e-10
6.99865e-08 1.11761e-07 5.31055e-09
7.70628e-08 1.08583e-07 5.42254e-09
1.9299e-07 7.14604e-08 2.32943e-08
1.89764e-07 7.1641e-08 2.15777e-08
-1.03777e-07 1.00768e-07 -2.79226e-08
-1.0363e-07 1.00148e-07 -2.96727e-08
-1.92707e-07 5.46675e-08 -2.9449e-08
-2.14386e-07 3.76753e-08 5.62152e-09
-1.07659e-07 9.6084e-08 -3.01136e-08
1.98545e-07 8.78465e-08 1.94691e-09
1.49796e-07 9.01835e-08 -1.68255e-08
1.95535e-07 8.83258e-08 2.25347e-09
-1.90951e-07 5.55486e-08 -2.93262e-08
-2.09703e-07 4.17009e-08 7.2004e-09
-3.18128e-08 -2.07472e-08 2.67149e-09
-3.06266e-08 -1.80912e-08 2.68346e-09
-2.12172e-07 4.04767e-08 4.27229e-09
-2.10643e-07 2.52467e-08 -1.99149e-08
1.43411e-07 8.60831e-08 -1.74747e-08
1.54471e-07 8.38084e-08 -1.60293e-08
-1.47295e-07 7.77177e-08 -3.42228e-08
-1.4712e-07 7.97666e-08 -3.45681e-08
8.50192e-08 1.30003e-07 -7.83242e-09
1.41686e-07 8.68172e-08 -1.59475e-08
1.03096e-07 -1.31374e-08 -2.17385e-09
-7.10623e-08 3.28684e-08 2.69362e-09
1.59104e-07 8.44744e-08 1.84407e-08
1.55271e-07 8.31465e-08 1.63698e-08
5.44053e-08 1.43192e-07 -1.57235e-09
-6.32057e-08 4.07703e-09 -2.4633e-09
1.07061e-07 -7.98112e-09 1.24306e-09
-8.34656e-08 1.02654e-07 2.40751e-08
-9.11027e-08 1.02847e-07 2.53178e-08
-1.5576e-07 -4.1073e-08 -3.40186e-09
-1.56489e-07 -4.01021e-08 -3.5077e-09
-1.5892e-07 -3.97729e-08 -2.92529e-09
3.06707e-07 2.59065e-08 1.58331e-08
2.07768e-07 7.94387e-08 6.38265e-09
2.03328e-07 8.0791e-08 8.15138e-09
3.01146e-07 2.63527e-08 1.54457e-08
7.78976e-09 1.23084e-07 -7.27907e-09
3.4081e-08 -8.22131e-08 1.09359e-08
-9.97583e-09 7.89601e-08 6.39473e-09
-9.8265e-09 8.20388e-08 7.28177e-09
1.79035e-07 8.90659e-08 -7.22805e-09
2.59645e-08 -8.14204e-08 9.42371e-09
2.78355e-08 -8.15307e-08 1.05997e-08
-2.65416e-08 1.14756e-07 1.01685e-08
-2.78395e-08 1.13098e-07 1.25925e-08
4.24578e-09 1.12296e-07 2.63042e-09
-5.1908e-09 1.14235e-07 3.90972e-09
2.58983e-07 5.19459e-08 -4.12835e-08
2.55917e-07 5.00273e-08 -3.91598e-08
-1.25042e-08 1.63101e-07 -2.85208e-09
-1.41678e-07 8.5718e-08 -2.37677e-08
-1.47948e-07 8.33089e-08 -2.09509e-08
-1.67355e-07 6.78922e-08 2.62374e-08
-3.08641e-08 1.60289e-07 -1.51932e-09
-2.56168e-08 1.60779e-07 -2.63839e-09
-1.74724e-07 6.42033e-08 3.26108e-09
-1.70876e-07 6.65894e-08 2.45313e-09
-1.72984e-07 6.56774e-08 6.56434e-09
-1.7283e-07 6.70901e-08 4.74314e-09
-1.26436e-08 3.10263e-08 3.57873e-09
-3.31881e-08 1.37636e-07 1.08083e-08
1.11096e-07 9.6905e-08 -1.43936e-08
1.12649e-07 9.6035e-08 -1.59877e-08
1.52219e-07 1.18026e-07 1.37858e-09
1.48165e-07 1.19719e-07 -8.1799e-10
-1.17741e-07 9.23685e-08 -3.16694e-08
-4.34099e-08 2.48684e-08 -4.31429e-10
-2.17765e-08 1.38048e-07 -1.13467e-08
-8.47087e-09 1.41078e-07 -1.11567e-08
1.67159e-07 1.00239e-07 -5.95692e-09
1.90545e-07 7.38204e-08 3.02426e-08
-6.15521e-08 1.06515e-07 -2.11244e-08
-6.10688e-08 1.08983e-07 -2.27252e-08
2.01229e-07 6.89333e-08 2.95465e-08
1.91197e-07 7.31243e-08 3.2394e-08
-1.38731e-07 8.66882e-08 1.86853e-08
-1.37271e-07 9.00573e-08 1.96739e-08
-1.39002e-07 8.75364e-08 2.07699e-08
-3.76904e-08 1.25414e-07 1.28079e-08
-5.40554e-08 1.23973e-07 1.46089e-08
-4.84128e-08 1.23311e-07 1.23411e-08
-1.23339e-07 9.57192e-08 2.09014e-08
-1.22991e-07 9.77284e-08 1.94982e-08
-1.23696e-07 9.68268e-08 1.90929e-08
-3.15003e-08 -8.30286e-08 2.27532e-09
-2.91249e-08 -8.42478e-08 8.79592e-10
-9.43792e-08 1.28297e-07 -1.01843e-08
1.87671e-07 8.89674e-08 -5.69191e-09
-8.69186e-08 1.33904e-07 -1.17265e-08
1.73853e-07 8.98029e-08 -8.93615e-09
1.7134e-07 9.25527e-08 -9.48856e-09
8.01064e-08 1.12441e-07 6.22535e-09
8.19568e-08 1.11803e-07 8.14418e-09
3.69942e-08 1.32587e-07 -1.23378e-09
4.45207e-08 1.28045e-07 -6.19523e-10
1.99376e-07 8.11676e-08 9.7095e-09
2.02943e-07 7.85557e-08 7.44867e-09
1.91037e-07 8.94608e-08 -4.2756e-09
1.97621e-07 8.6867e-08 -2.85911e-09
2.2172e-07 7.31477e-08 -4.84863e-09
1.92864e-07 8.7547e-08 -4.39751e-09
6.67181e-08 1.33867e-07 1.23503e-09
6.54081e-08 1.33869e-07 7.98008e-10
7.52529e-08 1.34638e-07 2.18377e-09
5.96109e-08 -6.93454e-08 1.60627e-08
5.96274e-08 -6.87129e-08 1.45458e-08
1.54512e-07 7.60142e-08 -5.58908e-08
-1.27469e-07 9.0613e-08 2.3606e-08
5.2882e-08 -7.07019e-08 1.5324e-08
-9.71411e-08 9.9939e-08 -2.79316e-08
1.76696e-07 9.86858e-08 -2.37162e-09
1.7167e-07 1.00123e-07 -4.57641e-09
-9.72794e-08 1.02899e-07 -2.89765e-08
-9.98422e-08 9.87373e-08 -2.87342e-08
1.92296e-07 8.99944e-08 4.2608e-09
1.94419e-07 8.77757e-08 4.12994e-09
1.55791e-07 1.11886e-07 4.30979e-09
1.98134e-07 8.75627e-08 3.78704e-09
-1.96362e-07 4.74556e-08 2.38895e-08
-1.97431e-07 4.50002e-08 2.20796e-08
1.74065e-07 1.02631e-07 2.16825e-09
1.72595e-07 1.02331e-07 2.6856e-09
1.70884e-07 1.0277e-07 2.23744e-09
2.02065e-08 1.32557e-07 -4.48537e-09
1.49791e-08 1.28511e-07 -6.73717e-09
3.02897e-08 1.28915e-07 -3.51048e-09
1.02032e-07 1.14666e-07 -7.95252e-09
9.06201e-08 1.15462e-07 -8.01203e-09
1.67519e-07 9.29639e-08 1.24782e-08
1.66236e-07 9.27225e-08 1.10148e-08
2.41455e-07 5.6669e-08 1.48726e-08
2.42106e-07 5.65413e-08 1.45241e-08
-8.90364e-08 9.88244e-08 -2.72841e-08
-9.64255e-08 9.9504e-08 -2.94e-08
-9.63135e-08 9.67011e-08 -2.91363e-08
1.76976e-07 8.15055e-08 -3.25203e-08
4.65626e-07 -1.88668e-08 6.39366e-08
4.5717e-07 -2.18986e-08 1.43826e-08
-4.01759e-08 4.4698e-08 -2.12226e-09
5.96543e-08 1.15547e-07 5.01237e-09
5.88838e-08 1.1317e-07 3.68551e-09
-1.08118e-07 9.37153e-08 -3.1545e-08
-1.02326e-07 9.9502e-08 2.52842e-08
4.7277e-07 -2.20465e-08 5.92248e-08
-1.73002e-07 5.62409e-08 -3.15139e-08
1.45338e-07 9.73576e-08 -1.08985e-08
1.37219e-07 9.90327e-08 -1.21088e-08
-1.75677e-07 6.4583e-08 2.44434e-08
-1.78351e-07 6.37552e-08 2.44896e-08
-1.42645e-07 1.07418e-08 -8.5903e-09
-1.41976e-07 9.64939e-09 -8.36034e-09
-1.77284e-07 5.5601e-08 -3.26201e-08
-3.99315e-08 1.50206e-07 -1.18421e-08
-8.768e-08 1.18972e-07 -2.11849e-08
-9.69765e-08 1.14021e-07 -1.9833e-08
-3.53466e-08 1.52916e-07 -9.08405e-09
1.90095e-08 1.38063e-07 -6.00682e-09
1.50827e-07 1.14305e-07 5.68543e-09
4.32376e-08 1.19289e-07 -4.37577e-09
5.35308e-08 1.20085e-07 -5.08608e-09
-7.33392e-08 1.15569e-07 1.75831e-08
1.94953e-08 1.37932e-07 -6.78649e-09
9.34746e-08 1.01756e-07 -2.90575e-08
9.31853e-08 1.03492e-07 -3.18034e-08
2.59577e-08 1.3548e-07 -4.59935e-09
-8.79537e-08 1.1929e-07 1.63526e-08
-3.64732e-08 6.51307e-08 -3.05682e-09
2.47749e-07 5.52538e-08 -1.20112e-08
2.49982e-07 5.35931e-08 -1.06153e-08
-1.3542e-07 8.38694e-08 -3.54016e-08
1.06738e-07 1.11102e-07 -8.5042e-09
-1.3357e-07 8.5006e-08 -3.53256e-08
-1.33668e-07 8.72139e-08 -3.58159e-08
7.43341e-08 1.29418e-07 2.58799e-09
-1.60297e-07 1.25122e-08 -1.04609e-08
1.22324e-07 1.13694e-07 8.73341e-09
1.31386e-07 1.12493e-07 8.24976e-09
3.94101e-07 -5.38562e-09 3.65971e-08
4.10669e-07 -1.02891e-08 3.12904e-08
-1.555e-07 8.19573e-08 -5.04806e-09
-1.53463e-07 8.20589e-08 -6.33704e-09
1.82591e-07 8.09293e-08 1.03728e-08
3.3192e-07 1.70861e-08 -3.9032e-08
3.29898e-07 1.91744e-08 -3.93235e-08
1.83913e-07 8.13879e-08 1.25002e-08
3.99715e-07 -7.37062e-09 3.60735e-08
-1.72305e-07 6.72834e-08 1.76385e-08
-1.86262e-07 -2.12768e-08 -5.69922e-09
-1.84108e-07 -2.26255e-08 -6.78177e-09
-9.17345e-08 1.03725e-07 2.36987e-08
-8.84831e-08 1.04134e-07 2.19156e-08
1.72354e-07 9.51459e-08 8.44506e-09
1.70524e-07 9.7072e-08 6.70838e-09
-1.71927e-07 6.60186e-08 1.8913e-08
-1.6754e-07 6.88944e-08 1.99749e-08
-8.24331e-08 1.02647e-07 -2.51206e-08
3.86614e-08 -6.45324e-08 1.80897e-08
3.19077e-07 2.36243e-08 7.89479e-09
3.20969e-07 2.29924e-08 9.32144e-09
-5.00092e-09 -1.58205e-08 3.18604e-09
-8.21003e-08 1.02093e-07 -2.66524e-08
-1.16559e-07 9.41834e-08 -3.41785e-08
-1.17345e-07 9.27435e-08 -3.33321e-08
-1.17751e-07 9.07423e-08 -3.41955e-08
-7.54564e-08 -6.10078e-08 -5.94396e-09
-8.20426e-08 -5.80896e-08 -5.43657e-09
-2.24448e-08 3.46422e-09 -5.13783e-10
-8.24617e-08 -5.86885e-08 -6.72743e-09
-1.01897e-07 1.01518e-07 2.38295e-08
-5.64437e-08 -6.63017e-08 -1.57139e-09
-5.70094e-08 -6.63056e-08 -2.65543e-09
-1.02526e-07 9.96335e-08 2.3752e-08
3.54137e-08 1.20679e-07 -1.12358e-09
-1.40402e-08 1.55228e-07 -8.16834e-09
5.30136e-10 1.57347e-07 -7.7771e-09
2.61113e-08 1.18103e-07 -2.74441e-09
-1.04182e-07 9.62145e-08 2.68032e-08
-9.05096e-08 -6.22684e-08 -5.5659e-09
-9.12021e-08 -6.3097e-08 -7.01316e-09
-1.01111e-07 9.78616e-08 2.61285e-08
-1.00925e-07 1.00364e-07 2.66847e-08
1.01357e-07 -5.83913e-08 8.47757e-09
1.0067e-07 -5.89275e-08 6.95958e-09
-5.17898e-08 -8.14959e-08 -5.09421e-11
-5.40795e-08 -8.30435e-08 -1.52634e-09
2.26971e-07 6.17458e-08 -3.96793e-08
2.26137e-07 5.96238e-08 -3.5509e-08
-8.00624e-08 1.18253e-07 1.7065e-08
-6.04568e-08 -8.09031e-08 -9.10525e-10
-1.65205e-07 3.41353e-08 -2.00402e-08
-1.66922e-07 3.46987e-08 -2.09695e-08
2.0491e-07 -3.34813e-08 -1.98965e-08
-5.29283e-08 -8.15043e-09 1.6806e-09
-4.91578e-08 -8.58256e-09 -1.69624e-09
-4.7816e-08 -1.10613e-08 -1.78063e-09
2.00227e-07 -3.41579e-08 -2.02419e-08
1.99138e-07 -3.32596e-08 -1.91411e-08
-2.36746e-08 5.15156e-08 2.99813e-09
-2.18484e-08 5.55096e-08 3.9625e-09
9.30208e-08 1.16293e-07 7.17784e-09
2.11233e-07 6.84619e-08 1.97285e-08
2.07515e-07 6.76209e-08 1.78019e-08
1.36771e-07 -3.34936e-08 -1.64141e-08
1.32576e-07 -3.11948e-08 -1.41607e-08
2.42855e-07 6.204e-08 -4.114e-09
2.45638e-07 6.07393e-08 -1.86367e-09
-5.24561e-08 1.39262e-07 9.59096e-09
-5.66288e-08 1.39412e-07 1.0497e-08
-5.31963e-08 1.4227e-07 7.84517e-09
4.87839e-08 1.34621e-07 -2.93269e-09
4.18519e-08 1.38038e-07 -1.34731e-09
1.48856e-08 1.27075e-07 -5.53804e-09
1.40141e-08 1.2579e-07 -6.20104e-09
4.03509e-08 1.41144e-07 -3.055e-09
3.10118e-08 1.44525e-07 -3.97425e-09
4.30767e-08 1.40604e-07 -2.40265e-09
-1.69817e-08 -7.33868e-08 5.08685e-09
-1.86014e-08 -7.51036e-08 3.52908e-09
1.38101e-08 -6.9206e-08 1.12486e-08
1.36341e-08 -7.01458e-08 1.03031e-08
3.9199e-08 1.38168e-07 2.18702e-10
-5.15988e-08 1.34688e-07 1.30194e-08
-4.9982e-08 1.35994e-07 1.04616e-08
-3.63287e-08 1.21262e-07 1.29511e-08
-3.52375e-08 1.24046e-07 1.21563e-08
-7.59752e-08 -3.83734e-08 2.49441e-09
-4.68792e-08 1.33578e-07 1.33015e-08
1.49494e-07 1.61852e-08 2.34883e-08
1.38501e-07 1.39491e-08 2.00141e-08
-8.37977e-08 1.15655e-07 1.8048e-08
7.5711e-08 1.5555e-07 -1.83305e-09
1.54451e-08 3.79598e-08 9.41012e-09
-4.04941e-08 1.3256e-07 1.13154e-08
-1.77038e-07 6.44969e-08 -3.44228e-08
-1.83334e-07 6.11418e-08 -3.32747e-08
2.87833e-07 3.84397e-08 -3.74499e-09
-1.77646e-07 6.33764e-08 -3.45951e-08
-1.84146e-08 1.57503e-07 -7.34629e-09
-4.10108e-09 1.60096e-07 -7.17915e-09
-1.90876e-07 -1.78903e-08 2.11377e-09
-1.9275e-07 -1.67047e-08 8.83574e-10
2.33063e-07 5.91072e-08 4.06042e-08
2.27101e-07 6.37718e-08 4.36118e-08
1.27273e-07 1.07924e-07 -1.0336e-08
-1.74629e-07 6.54083e-08 2.37803e-08
-1.74506e-07 6.37445e-08 2.30024e-08
-8.21166e-08 1.94311e-08 -5.21901e-09
-8.25319e-08 2.09983e-08 -5.22223e-09
-1.74779e-07 6.5443e-08 2.26474e-08
7.62563e-08 1.06242e-07 1.76788e-08
-6.75171e-09 5.97581e-08 -1.05298e-08
-7.44796e-09 6.00596e-08 -1.02866e-08
6.41256e-08 1.09165e-07 1.69607e-08
1.43994e-07 -3.99414e-08 -1.39196e-08
1.48532e-07 -3.93634e-08 -1.21672e-08
3.53908e-07 6.08071e-09 3.43088e-09
3.57279e-07 4.82726e-09 2.69812e-09
-5.05448e-09 1.15325e-07 -2.30979e-09
2.41744e-07 6.20634e-08 5.9552e-09
1.20105e-07 9.82165e-08 -2.97523e-08
1.13623e-07 1.03951e-07 -2.9999e-08
7.65319e-09 1.14397e-07 2.48614e-09
7.18788e-09 1.12977e-07 -1.60141e-10
1.64413e-08 1.29873e-07 -5.43757e-09
3.09374e-08 1.49863e-07 -4.74464e-09
-1.78043e-07 2.71104e-08 1.47221e-08
-1.7617e-07 2.6809e-08 1.42029e-08
1.61678e-07 1.00676e-07 -7.68437e-09
1.64795e-07 1.06531e-07 3.307e-09
1.67126e-07 1.0407e-07 4.69603e-09
1.68269e-07 1.03733e-07 4.86014e-09
-2.74382e-08 8.87521e-08 5.85447e-10
1.20688e-07 1.10687e-07 6.78265e-09
2.00228e-07 8.54209e-08 3.01362e-09
2.0304e-07 8.50489e-08 2.63001e-09
1.09151e-07 1.13339e-07 8.72374e-09
-2.52222e-08 -9.12936e-08 1.2839e-09
-1.95211e-08 -8.88884e-08 -2.94612e-10
1.06455e-07 1.15071e-07 6.72569e-09
2.26833e-07 6.27649e-08 -1.66889e-08
-2.85586e-09 1.57263e-08 2.59457e-09
-3.06441e-09 1.29625e-08 2.03955e-09
2.25503e-07 6.19866e-08 -1.39051e-08
2.34323e-07 5.99497e-08 -1.55006e-08
2.37639e-07 5.76118e-08 -1.27763e-08
2.22948e-07 6.42905e-08 -1.54999e-08
-9.41739e-09 1.14701e-08 -1.84695e-09
-9.8791e-09 1.42535e-08 -2.37289e-09
7.86882e-08 1.54831e-07 -2.36394e-09
-2.37566e-09 -7.42543e-08 -4.65304e-09
5.24602e-09 -7.5034e-08 -4.78714e-09
6.83155e-08 1.56827e-07 -3.68414e-09
-6.88319e-08 1.44651e-07 -8.14295e-09
5.97465e-08 1.59276e-07 -2.62923e-09