# vtk DataFile Version 2.0
S, Created by Mohamad Ibrahim Cheikh
ASCII
DATASET UNSTRUCTURED_GRID
POINTS 23916 double
-137.749 68.8777 101.768
-140.74 66.7733 102.666
-299.693 -59.0376 54.2437
-296.718 -58.2353 57.0412
-348.769 26.0785 43.0289
2.1853 4.82104 131.91
-309.845 63.5671 40.3658
-310.429 -54.0509 52.0033
-309.808 61.5197 43.4553
-340.477 -27.8026 49.5812
-337.275 -27.2248 52.4958
-343.098 -23.876 49.4158
-341.574 -20.7393 52.0532
65.0752 39.9185 -123.742
68.6543 42.1737 -122.753
-331.34 -43.3473 45.8679
-333.27 -40.1173 47.0785
-19.3503 19.2751 130.409
-358.127 7.5369 -40.8032
-359.639 4.32427 -39.6243
-339.608 21.0167 53.4968
-159.436 -103.129 60.6319
-159.441 -101.329 63.5923
-312.592 -67.81 -29.3718
-315.231 -67.4559 -26.6028
-155.547 72.8148 -95.707
-151.986 74.5222 -95.0912
-339.98 24.2229 51.826
-282.882 32.7987 80.9389
-249.012 84.2603 52.275
-245.011 85.8023 52.0806
-162.164 63.9839 100.551
-159.869 66.229 99.5421
-285.613 29.7885 80.9284
-334.836 0.133739 60.8085
-332.329 3.05667 62.3947
-244.121 99.8701 12.3971
-246.96 -12.954 98.9406
-249.952 -15.0063 97.7234
-214.008 -93.2219 -55.9144
-217.796 -93.5035 -53.6058
-213.436 -86.2237 66.424
-216.636 -86.7806 64.3995
-205.736 -92.722 60.3693
-217.209 8.95906 107.552
-215.412 12.6475 107.624
-209.14 -93.0839 58.3468
-185.811 109.786 33.8233
-186.639 108.647 36.8128
-283.807 1.50776 86.9505
-282.023 5.04031 87.5264
321.69 18.9952 -66.2838
323.407 15.5152 -66.1668
-261.049 26.4443 91.5504
-263.303 23.3304 91.6067
12.0385 7.36662 -131.727
-315.87 -53.7954 -48.1117
-313.658 -53.246 -50.4377
-324.29 -53.9019 -40.5379
191.942 74.3554 85.9344
-321.525 -54.0429 -42.9736
33.8286 95.309 -90.5543
-237.069 101.62 -14.7151
-240.865 100.466 -15.0902
-322.286 -55.0784 40.9108
-324.52 -52.6985 41.873
-26.9238 12.1774 -131.099
-129.539 119.913 31.4714
-132.643 119.017 33.2389
11.2295 13.9815 131.199
7.54973 16.1847 130.977
-240.87 33.409 95.9407
-243.787 31.0281 95.8383
-309.4 45.858 60.0082
-244.18 33.3628 -94.9272
-15.1605 20.9497 130.219
-246.286 36.1254 -93.2346
-243.32 -14.7817 99.785
-243.153 -18.7192 99.172
301.23 -14.4889 78.1333
300.064 -11.1934 79.2168
-296.679 61.7858 53.2012
-300.5 60.9375 51.5275
-111.009 117.894 44.9027
-108.789 116.963 47.9024
-240.41 76.0222 67.5908
-244.73 74.4077 67.4892
-312.428 42.7203 60.402
-349.569 22.145 44.4164
-360.365 16.9969 -35.1556
-362.771 16.8765 -32.0472
-189.329 -83.4988 -77.8677
-190.447 -80.8387 -80.303
8.70424 -8.8791 131.666
-337.428 37.1409 -45.879
-240.914 -62.7184 -79.9037
-243.134 -60.206 -81.0055
-199.883 83.9331 74.0792
-196.277 83.6459 75.5698
-191.416 -76.0458 -84.5884
-160.898 94.7712 72.6149
-343.141 35.2198 -42.0463
-248.029 87.3567 47.551
-250.801 85.4576 49.1933
-297.872 24.5643 -77.1857
61.3565 -8.01338 -129.996
-300.158 21.6262 -76.9804
-350.722 -29.9065 38.3392
-348.056 -32.3259 39.3381
-321.758 63.3585 -27.1054
31.0913 18.2963 -130.272
-318.34 65.2684 -27.5121
-340.197 37.5592 -42.9412
-198.642 107.993 -30.5042
-194.98 109.023 -29.7225
-193.029 110.351 -26.1686
-196.77 109.995 -24.1804
-170.662 -117.202 -11.032
-173.853 -115.909 -16.9871
-346.111 37.1456 37.1199
-295.019 -74.2364 -35.4551
-291.572 -75.6951 -35.8598
-173.636 -116.478 -12.8692
35.7327 21.4728 129.64
-26.8319 9.23158 131.342
-23.5439 10.9036 131.291
-249.426 -22.3368 96.4793
68.8151 -15.0562 128.909
-24.506 0.881299 131.718
-251.33 -18.7794 96.6323
-261.987 43.2938 84.5363
-293.169 -68.5092 46.9878
-257.829 45.2617 85.069
-22.7221 -2.30568 131.74
-256.176 48.0451 84.1487
-26.6917 6.01108 131.532
-256.844 86.0405 -44.0953
-256.859 87.7636 -40.5467
-193.046 60.9087 95.6638
-196.34 60.2163 95.2806
-249.284 88.7117 44.1148
-261.877 -81.8296 48.2875
-296.097 -63.9086 51.0468
-296.362 -66.3614 47.6133
-283.793 19.3999 -84.778
-285.624 16.196 -84.6975
301.686 54.629 -57.4174
304.074 52.4848 -57.8731
304.599 49.7938 -59.8782
-39.0256 -19.5475 -129.828
-267.472 92.446 -10.904
-209.885 93.2134 57.8099
-212.444 91.4855 59.404
-76.7197 121.33 -44.5257
-359.234 27.5407 -29.4273
-269.49 92.0565 -7.62244
-375.333 8.35482 10.3362
-376.303 5.82583 7.30875
-267.098 93.0659 -5.32535
-350.936 46.9616 -11.8548
-348.387 49.4793 -10.7683
178.227 94.313 68.118
176.895 96.6864 65.151
172.593 97.4279 65.4583
-360.626 -6.70584 -38.1687
-357.919 -7.66717 -41.0014
-84.4304 119.178 -48.4552
-326.845 62.4558 21.0789
-329.191 60.6983 21.734
-330.652 58.6196 24.5421
-329.469 58.0488 27.6501
115.855 -119.758 -37.9319
-331.977 -53.6107 -32.5107
-335.222 -51.8277 -31.3036
113.274 -119.147 -40.7077
109.457 -119.614 -40.6149
-191.665 88.3825 71.5192
-192.005 86.0803 74.1666
-353.268 -34.4745 30.9259
-350.508 -37.6211 31.1025
-81.1169 120.365 -46.1585
-316.415 -61.8946 36.5444
-261.672 -28.0491 -90.8524
-312.876 -62.9011 38.5042
-310.129 -65.5513 36.7649
-327.341 -0.994079 -65.6074
-329.465 -3.39453 -64.2106
-180.358 -103.67 -51.9038
-328.855 -7.35485 -64.2619
-238.827 -93.2862 41.6944
-282.933 65.0532 58.2354
-285.815 62.7835 58.9989
-328.424 -32.8096 -56.0529
-328.94 -35.7276 -53.8548
-326.347 -41.5475 -51.5619
-323.925 -44.6683 -50.8177
-307.685 -33.5072 -68.6351
-311.76 -32.0831 -67.0456
-302.821 45.5285 64.2199
-304.341 41.5485 66.0135
-200.553 107.526 30.6225
-204.115 106.636 30.8545
-280.031 13.1567 -87.4657
-278.936 9.53101 -88.3597
-280.577 25.9747 -84.3277
-278.611 28.8624 -84.1866
-183.457 86.197 -76.6388
-182.681 83.7415 -79.5334
-290.1 -54.0587 -64.7932
-286.212 -55.2967 -65.8568
-185.504 -104.839 -47.1132
-165.579 -117.272 17.7393
-256.08 -58.8087 -77.0514
-294.544 82.2061 -6.67396
-259.723 66.2005 69.1577
-296.162 81.0876 -10.4986
-184.425 -103.583 -50.3023
-180.657 -114.075 20.3742
59.285 5.53844 130.242
56.2467 7.5763 130.305
-177.723 -115.172 17.0981
-71.7366 -116.709 -56.3284
-228.756 64.0069 83.189
-227.419 67.2876 81.0208
-236.778 -81.8229 -62.1697
-234.283 -80.5447 -64.9349
-343.315 30.7475 45.2579
-232.402 62.1997 83.3224
61.3307 75.9919 -105.777
-15.5611 -14.6532 131.071
-220.834 69.2264 -81.6154
-219.306 67.1223 -83.8469
-358.557 17.6513 37.0455
32.7929 -16.1148 -130.509
57.9034 78.1092 -104.463
-231.161 -44.6652 94.2703
-231.872 -47.4928 92.6608
218.548 -104.151 26.9994
214.484 -105.256 26.6998
213.001 -106.386 23.4812
-69.8731 124.79 -35.4067
-268.285 88.6755 -27.3591
-270.557 86.9541 -30.0156
-70.5036 123.534 -39.4317
-317.665 -1.26818 -71.1884
337.934 23.9415 53.5663
-41.5395 10.2685 -130.795
-45.4769 11.2519 -130.553
-291.566 75.2585 36.7734
334.281 19.438 58.0115
337.247 20.9588 55.3179
-278.17 -15.2092 87.859
-275.161 -17.703 88.5492
-211.068 -1.14719 109.4
-212.25 -4.46625 109.035
-88.4034 108.88 67.9133
-91.2231 109.754 66.025
-377.109 -2.94212 -2.0974
-302.824 -70.513 -34.9963
-301.12 -72.9556 -31.6281
-232.411 -89.857 52.3131
-376.475 -8.23115 1.93352
-376.716 -6.75306 -1.9128
-272.121 -90.7526 11.0458
-280.408 -87.9287 8.12266
-274.889 -89.4658 12.9823
-278.654 -88.2287 11.5417
9.77571 15.7317 -131.015
-352.116 -13.4214 45.4339
-249.715 48.3195 86.341
-246.011 50.1891 86.5758
-342.922 54.7601 -5.29807
-345.532 52.8851 -3.14689
-252.318 -64.3143 -74.1164
-0.0653659 2.41399 131.978
-351.985 -10.0711 -46.4136
-352.598 -5.72415 -46.5835
-314.845 66.5456 29.3167
-147.783 83.4304 -88.2581
-251.709 -35.5406 -91.6733
-248.223 -35.8973 -92.6925
-142.225 87.867 -85.0109
-144.243 85.3526 -87.1301
-303.985 -67.5733 39.2992
-306.9 -65.5381 39.9667
-300.718 -67.9019 41.735
-330.658 -17.8956 60.9745
-332.374 -24.0347 57.6292
-330.34 -21.3955 60.0504
-311.96 -58.6753 45.4579
-315.062 -57.0381 44.9188
-317.349 -57.5051 42.2743
336.709 -17.5297 -56.8895
339.381 -15.2791 -55.5795
-362.268 -33.3357 -15.6592
-293.6 78.1308 27.6764
-364.412 -29.8593 -16.5573
-289.129 73.2846 42.6462
-292.67 71.2674 43.1053
-292.002 30.2485 -77.9101
-289.542 32.1527 -78.2705
-334.156 11.3747 -60.1998
-331.896 14.3377 -61.0908
-264.038 84.8693 -41.0587
-260.804 86.7959 -39.5334
-296.171 78.9832 21.1284
-291.077 82.1904 17.1959
-253.827 95.9902 17.9418
-292.958 80.589 20.5396
-343.4 21.951 -50.0471
-346.585 21.5505 -47.4665
-346.828 25.0143 -45.5103
298.687 46.3988 65.9445
302.174 45.4782 64.6278
-41.5118 84.647 100.239
-288.106 -63.8583 56.4249
303.178 41.8604 66.4703
-284.683 -52.6374 -68.782
-315.659 70.1484 17.4408
-317.875 68.1769 20.1245
-281.834 -52.0391 -70.6486
-279.029 -54.4959 -70.1576
-297.6 79.2249 -17.4439
-293.836 81.0269 -16.9722
-335.356 58.3207 -15.9276
-292.685 82.2125 -13.3108
-141.003 -103.631 65.1954
-138.044 -104.892 63.9425
-322.868 67.7581 -8.37943
-321.849 67.3701 -14.2512
-323.813 66.709 -11.6829
-334.076 4.68313 -61.1391
-331.945 1.952 -62.6887
-332.211 8.37321 -61.9834
-320.076 39.363 57.7214
-320.705 35.4495 59.7927
-281.408 69.7737 -53.4817
-285.016 69.2246 -51.8304
-178.471 106.24 -47.301
-175.671 105.633 -49.8731
-167.638 -47.8861 -108.122
-168.827 -51.0133 -106.452
-172.717 -52.2603 -105.074
-159.189 78.8038 90.0635
59.8158 129.641 -13.3886
55.9098 129.858 -13.3494
-23.6067 3.8521 131.685
-285.798 22.1419 -83.2679
-288.951 21.5354 -82.0863
-252.331 -61.0367 -76.8328
-284.621 -52.8231 68.6714
62.9763 129.7 -10.7856
-121.372 -92.3514 -84.2121
-292.346 60.3637 57.5897
-293.61 57.5779 59.619
-219.613 -92.9399 53.6783
-220.599 -94.4269 50.4935
9.82514 -71.6571 -110.804
13.3769 -71.1041 -111.114
-122.639 -94.8926 -81.1049
-369.336 -13.2729 -23.3923
-342.615 -37.6124 -40.4695
-340.714 -41.6645 -38.4139
-371.228 -11.1343 -20.6853
-348.163 4.20388 -50.6518
-336.423 55.93 -20.9549
-307.344 16.8491 74.6678
-307.384 20.3786 73.7623
-328.856 -33.4877 55.337
-344.809 3.87717 -53.4115
-132.487 47.9058 113.93
-129 49.6378 113.678
-342.604 6.70393 -54.8493
-342.089 -36.1739 42.285
-47.2729 3.1733 130.921
-182.412 109.137 37.9375
-178.933 110.238 36.7672
-206.861 -74.7048 -81.2662
-317.107 42.1993 57.7235
-213.259 -73.804 -80.0555
-209.803 -72.6343 -82.2142
-340.6 25.4884 -50.7086
0.558253 -83.5166 -102.22
-324.406 46.9506 -48.3233
-323.573 50.1352 -45.7389
34.3906 129.214 -24.1419
40.2297 129.826 -19.2643
-314.549 -72.8042 -3.17996
[...]
POINT_DATA 23916
VECTORS F double
1.4346e-07 8.26249e-08 -3.21477e-08
1.40214e-07 8.54782e-08 -3.20618e-08
-1.10787e-07 8.94508e-08 2.24179e-08
-1.10283e-07 9.13227e-08 2.29994e-08
7.25512e-08 1.25896e-07 -4.30457e-09
-3.81045e-08 2.44829e-08 -8.17514e-10
1.49166e-07 9.47069e-08 -8.96054e-09
-1.0501e-07 9.3847e-08 2.0797e-08
1.43155e-07 9.41333e-08 -8.31162e-09
-5.96385e-08 1.16235e-07 1.50383e-08
-5.84254e-08 1.17307e-07 1.48794e-08
-5.28426e-08 1.21703e-07 1.38842e-08
-4.41497e-08 1.2005e-07 1.23615e-08
3.01495e-08 -1.5548e-08 -3.07451e-09
3.32215e-08 -1.90239e-08 -4.26113e-09
-9.21515e-08 1.04233e-07 1.70053e-08
-8.59802e-08 1.08512e-07 1.79493e-08
-1.19588e-08 4.8338e-08 -7.3618e-09
2.82983e-08 1.36165e-07 -5.25733e-09
1.91583e-08 1.39108e-07 -6.10821e-09
5.7434e-08 1.22329e-07 -3.41947e-09
-1.83177e-07 4.85586e-08 2.36213e-08
-1.79357e-07 4.94706e-08 2.37718e-08
-1.32829e-07 8.32356e-08 -1.90909e-08
-1.32299e-07 8.23209e-08 -1.68058e-08
1.59104e-07 7.62799e-08 2.63762e-08
1.60133e-07 7.57239e-08 2.80091e-08
6.62327e-08 1.23493e-07 -4.52454e-09
7.80777e-08 1.0204e-07 -7.94024e-09
1.83571e-07 7.25847e-08 -9.93887e-09
1.84679e-07 7.1542e-08 -1.1495e-08
1.33638e-07 8.91515e-08 -3.03431e-08
1.37217e-07 8.68624e-08 -3.0812e-08
7.206e-08 1.06027e-07 -7.89103e-09
6.57378e-09 1.25247e-07 4.1564e-09
1.29117e-08 1.21974e-07 2.44437e-09
2.17868e-07 6.55654e-08 -2.93624e-09
-1.75749e-08 1.07767e-07 8.73889e-09
-1.83545e-08 1.06239e-07 1.05664e-08
-1.60355e-07 6.51702e-08 -3.35124e-08
-1.59859e-07 6.34043e-08 -3.10769e-08
-1.53524e-07 6.89351e-08 2.90871e-08
-1.53075e-07 6.72344e-08 2.7557e-08
-1.6564e-07 6.21888e-08 2.64053e-08
2.42187e-08 1.10183e-07 -3.18996e-09
3.56384e-08 1.06216e-07 -3.74888e-09
-1.656e-07 6.09956e-08 2.46375e-08
2.38287e-07 5.1868e-08 -8.08956e-09
2.33593e-07 5.20026e-08 -8.48145e-09
1.1002e-08 1.11866e-07 2.45682e-09
1.94779e-08 1.0878e-07 1.41964e-09
2.25821e-08 -7.49544e-08 -8.06217e-09
1.76945e-08 -7.77772e-08 -7.64914e-09
6.27834e-08 1.01311e-07 -7.34592e-09
5.51548e-08 1.05807e-07 -7.53808e-09
-2.51339e-08 2.83298e-08 1.30304e-09
-1.02262e-07 9.4429e-08 -2.33866e-08
-1.0204e-07 9.61753e-08 -2.38406e-08
-1.07484e-07 9.55458e-08 -2.1774e-08
8.47409e-08 -5.42729e-08 2.37868e-08
-1.07578e-07 9.67001e-08 -2.30655e-08
1.6023e-07 2.84529e-08 3.72752e-08
2.20216e-07 6.34744e-08 3.98376e-09
2.18815e-07 6.48985e-08 4.4656e-09
-1.12396e-07 9.36827e-08 1.77219e-08
-1.09237e-07 9.72887e-08 1.87917e-08
-1.13579e-08 6.7177e-08 6.52542e-09
2.6771e-07 3.76595e-08 -8.5821e-09
2.64143e-07 3.92311e-08 -1.14209e-08
-2.25123e-08 1.96359e-08 -1.85662e-09
-2.01671e-08 2.43886e-08 -2.87133e-09
7.39882e-08 9.83438e-08 -1.15036e-08
7.12587e-08 9.99624e-08 -1.01713e-08
1.0925e-07 1.01191e-07 -8.36577e-09
8.20565e-08 9.87963e-08 8.88091e-09
-1.07962e-08 4.69073e-08 -7.70036e-09
8.50184e-08 1.00106e-07 1.12921e-08
-1.73714e-08 1.07579e-07 1.07502e-08
-2.7015e-08 1.06195e-07 1.19355e-08
-3.06829e-08 -7.31144e-08 9.2449e-10
-2.59636e-08 -7.14294e-08 1.94768e-09
1.42008e-07 9.28115e-08 -1.08332e-08
1.40668e-07 9.25494e-08 -9.0147e-09
2.6644e-07 3.74546e-08 -1.76946e-08
2.64785e-07 3.68364e-08 -1.63209e-08
1.63062e-07 7.49956e-08 -1.33427e-08
1.61799e-07 7.57318e-08 -1.1663e-08
1.03343e-07 1.05393e-07 -9.09691e-09
6.08284e-08 1.27081e-07 -4.74749e-09
5.39584e-08 1.39336e-07 -3.51751e-10
5.30799e-08 1.39528e-07 -8.65252e-11
-1.45179e-07 7.31421e-08 -3.52145e-08
-1.38755e-07 7.60268e-08 -3.62457e-08
-5.89712e-08 1.66617e-08 1.60092e-09
9.96935e-08 1.17453e-07 5.31422e-09
-1.02861e-07 8.80767e-08 -3.1164e-08
-9.99035e-08 9.13846e-08 -3.12087e-08
1.7905e-07 7.06544e-08 -2.09043e-08
1.80597e-07 7.22516e-08 -2.25456e-08
-1.30723e-07 8.05446e-08 -3.61936e-08
2.06166e-07 6.42334e-08 -2.79042e-08
9.64891e-08 1.20096e-07 4.1893e-09
1.9001e-07 7.08768e-08 -8.86763e-09
1.85834e-07 7.3372e-08 -1.14654e-08
6.29375e-08 1.07566e-07 4.49627e-09
-4.5461e-08 -1.41278e-08 -1.75613e-09
5.72033e-08 1.11194e-07 3.93042e-09
-7.19564e-08 1.2096e-07 1.37655e-08
-7.47856e-08 1.17087e-07 1.52054e-08
1.55038e-07 9.86471e-08 5.26531e-09
-8.55255e-09 1.2631e-08 1.52406e-09
1.57165e-07 9.66002e-08 6.5251e-09
9.99123e-08 1.18084e-07 6.37437e-09
2.33333e-07 5.50305e-08 8.79515e-09
2.34512e-07 5.37015e-08 8.63197e-09
2.39547e-07 5.29378e-08 6.90272e-09
2.37877e-07 5.33154e-08 5.53483e-09
-2.01581e-07 3.67007e-08 -8.11535e-09
-1.98313e-07 3.8123e-08 -1.16403e-08
9.82968e-08 1.20197e-07 -8.06883e-09
-1.38073e-07 7.8099e-08 -2.28655e-08
-1.38332e-07 7.65272e-08 -2.38335e-08
-2.00476e-07 3.77878e-08 -1.08539e-08
-1.04683e-08 -5.05134e-10 4.36933e-10
-2.7633e-08 5.04434e-08 -4.23663e-09
-2.65027e-08 4.92791e-08 -4.67446e-09
-3.28031e-08 1.04083e-07 1.37144e-08
-5.88759e-08 -2.3621e-08 1.08907e-09
-4.18978e-08 4.63171e-08 -1.26424e-09
-2.71359e-08 1.08032e-07 1.23539e-08
9.6349e-08 9.27662e-08 -1.09514e-08
-1.2738e-07 8.1552e-08 2.16022e-08
9.71128e-08 9.38692e-08 -1.39088e-08
-4.78042e-08 4.24621e-08 -2.6629e-10
1.04916e-07 9.05874e-08 -1.2617e-08
-3.44187e-08 4.9798e-08 -3.13092e-09
1.88969e-07 7.33391e-08 8.34347e-09
1.93936e-07 7.36329e-08 8.96558e-09
1.31196e-07 9.02915e-08 -2.50749e-08
1.30387e-07 8.91563e-08 -2.3451e-08
1.93562e-07 7.18036e-08 -1.04798e-08
-1.47595e-07 7.17926e-08 2.36624e-08
-1.19772e-07 8.54203e-08 2.18861e-08
-1.26282e-07 8.47196e-08 2.18456e-08
5.28377e-08 1.05772e-07 2.5493e-09
4.44026e-08 1.09208e-07 2.5503e-09
7.11099e-08 -6.3063e-08 -1.42568e-08
6.96473e-08 -6.5188e-08 -1.43168e-08
6.46935e-08 -6.62543e-08 -1.48048e-08
-6.00667e-08 6.27791e-08 -7.24173e-09
2.0424e-07 7.26508e-08 2.57492e-09
1.99733e-07 6.26041e-08 -1.21627e-08
1.96546e-07 6.44964e-08 -1.32718e-08
2.7758e-07 2.77639e-08 1.70985e-08
8.26779e-08 1.33486e-07 1.35923e-09
2.03106e-07 7.3004e-08 2.52661e-09
2.74408e-08 1.5342e-07 -2.01087e-09
1.92746e-08 1.54131e-07 -1.35368e-09
2.05535e-07 7.23081e-08 1.54123e-09
1.28883e-07 1.18682e-07 3.03907e-09
1.33523e-07 1.15439e-07 1.54944e-09
1.21217e-07 -4.84776e-08 2.829e-08
1.27681e-07 -4.64828e-08 2.65385e-08
1.27467e-07 -4.67969e-08 2.85047e-08
-1.27911e-08 1.36979e-07 -9.26996e-09
-1.34564e-08 1.36005e-07 -1.10515e-08
2.69937e-07 3.19133e-08 2.0907e-08
1.53276e-07 9.97042e-08 -4.44203e-09
1.5047e-07 1.01697e-07 -4.98875e-09
1.44982e-07 1.02657e-07 -6.05277e-09
1.43736e-07 1.02147e-07 -4.75953e-09
-1.77848e-07 -2.16481e-08 1.8428e-09
-1.11858e-07 9.69556e-08 -2.00394e-08
-1.10969e-07 9.8891e-08 -1.82401e-08
-1.78258e-07 -2.13428e-08 1.73929e-09
-1.78755e-07 -2.06743e-08 1.90709e-09
1.90186e-07 6.9013e-08 -2.2885e-08
1.83445e-07 6.93905e-08 -2.2394e-08
-8.6134e-08 1.18588e-07 1.17352e-08
-9.04011e-08 1.13494e-07 1.25523e-08
2.75562e-07 2.92736e-08 1.70471e-08
-1.24146e-07 8.74016e-08 1.64298e-08
-4.15805e-08 1.04891e-07 -1.77209e-08
-1.24299e-07 8.731e-08 1.89734e-08
-1.27621e-07 8.36282e-08 1.7306e-08
8.97655e-09 1.19605e-07 -7.2957e-09
4.26899e-09 1.21772e-07 -9.11937e-09
-1.79402e-07 5.38555e-08 -3.12455e-08
-6.08673e-09 1.19554e-07 -9.86965e-09
-1.63497e-07 6.07424e-08 2.12455e-08
1.45894e-07 8.78245e-08 -1.13254e-08
1.42445e-07 9.06811e-08 -1.20132e-08
-6.29037e-08 1.12106e-07 -2.04957e-08
-7.13913e-08 1.11917e-07 -2.08606e-08
-8.25541e-08 1.07222e-07 -2.24269e-08
-8.70587e-08 1.02594e-07 -2.22388e-08
-5.66925e-08 1.08408e-07 -2.18087e-08
-5.65755e-08 1.08967e-07 -1.99355e-08
1.08738e-07 1.00504e-07 -8.47665e-09
9.71761e-08 1.02992e-07 -9.97234e-09
2.31749e-07 5.48207e-08 -6.67275e-09
2.30887e-07 5.55837e-08 -5.10095e-09
3.93257e-08 1.09076e-07 9.92643e-10
3.27058e-08 1.06943e-07 -1.105e-09
6.77748e-08 1.05505e-07 4.8894e-09
7.43955e-08 1.02544e-07 5.01258e-09
1.83871e-07 6.7384e-08 2.19006e-08
1.80925e-07 6.75824e-08 2.028e-08
-9.59881e-08 9.54997e-08 -2.70611e-08
-9.58155e-08 9.49447e-08 -2.87389e-08
-1.80923e-07 5.22616e-08 -2.90804e-08
-2.01905e-07 3.57225e-08 5.42562e-09
-9.95533e-08 9.13789e-08 -2.92361e-08
1.88051e-07 8.26478e-08 1.92038e-09
1.42626e-07 8.47631e-08 -1.55604e-08
1.85224e-07 8.3108e-08 2.1836e-09
-1.7928e-07 5.31518e-08 -2.89778e-08
-1.97287e-07 3.94925e-08 6.94748e-09
-3.06076e-08 -1.82364e-08 2.48126e-09
-2.94164e-08 -1.56138e-08 2.46244e-09
-1.99707e-07 3.83345e-08 4.0774e-09
-1.99469e-07 2.47818e-08 -2.02452e-08
1.36966e-07 8.09025e-08 -1.6136e-08
1.47361e-07 7.87085e-08 -1.47264e-08
-1.37176e-07 7.39954e-08 -3.3424e-08
-1.37029e-07 7.60347e-08 -3.37836e-08
8.15297e-08 1.22179e-07 -7.287e-09
1.35278e-07 8.15939e-08 -1.47144e-08
9.83722e-08 -1.06241e-08 -6.49412e-10
-6.69e-08 3.38189e-08 2.80839e-09
1.51764e-07 7.96899e-08 1.7318e-08
1.48156e-07 7.84569e-08 1.53645e-08
5.2891e-08 1.3462e-07 -1.46766e-09
-6.01895e-08 6.54045e-09 -2.65923e-09
1.02366e-07 -5.55775e-09 2.79117e-09
-7.67283e-08 9.77521e-08 2.32801e-08
-8.39556e-08 9.7956e-08 2.44857e-08
-1.49131e-07 -3.91555e-08 -3.25058e-09
-1.49831e-07 -3.82333e-08 -3.36454e-09
-1.52133e-07 -3.79134e-08 -2.81854e-09
2.92064e-07 2.42226e-08 1.48067e-08
1.9692e-07 7.47995e-08 6.02346e-09
1.92733e-07 7.60727e-08 7.6849e-09
2.86843e-07 2.46428e-08 1.44108e-08
9.15048e-09 1.16246e-07 -7.07002e-09
3.23403e-08 -7.90301e-08 1.03438e-08
-7.56921e-09 7.88761e-08 6.48673e-09
-7.41505e-09 8.18626e-08 7.37167e-09
1.69758e-07 8.37121e-08 -6.53369e-09
2.45658e-08 -7.8236e-08 8.88396e-09
2.63634e-08 -7.83461e-08 1.00062e-08
-2.31329e-08 1.08549e-07 9.82381e-09
-2.43169e-08 1.07032e-07 1.21469e-08
6.46859e-09 1.06802e-07 2.64788e-09
-2.44003e-09 1.08681e-07 3.87027e-09
2.47695e-07 4.8628e-08 -3.84868e-08
2.44656e-07 4.67429e-08 -3.6316e-08
-9.67378e-09 1.5378e-07 -2.77748e-09
-1.32036e-07 8.0862e-08 -2.30481e-08
-1.37994e-07 7.85663e-08 -2.03791e-08
-1.56438e-07 6.43652e-08 2.54687e-08
-2.70741e-08 1.51247e-07 -1.52201e-09
-2.21077e-08 1.5172e-07 -2.58798e-09
-1.63411e-07 6.0359e-08 3.03808e-09
-1.59754e-07 6.2583e-08 2.26742e-09
-1.61742e-07 6.17491e-08 6.24402e-09
-1.61622e-07 6.3083e-08 4.49365e-09
-1.15356e-08 3.28644e-08 3.84084e-09
-2.95535e-08 1.29731e-07 1.02816e-08
1.06426e-07 9.11948e-08 -1.33511e-08
1.07926e-07 9.03874e-08 -1.48518e-08
1.44426e-07 1.10856e-07 1.30276e-09
1.4062e-07 1.12439e-07 -7.61112e-10
-1.09109e-07 8.78945e-08 -3.07943e-08
-4.08027e-08 2.62618e-08 -4.8281e-10
-1.87022e-08 1.30306e-07 -1.09101e-08
-6.09762e-09 1.33057e-07 -1.06996e-08
1.58487e-07 9.41745e-08 -5.38139e-09
1.82359e-07 6.97898e-08 2.8588e-08
-5.59118e-08 1.0136e-07 -2.05006e-08
-5.54285e-08 1.03745e-07 -2.20048e-08
1.92442e-07 6.50914e-08 2.78604e-08
1.83036e-07 6.90973e-08 3.05894e-08
-1.29338e-07 8.16857e-08 1.79699e-08
-1.27962e-07 8.49013e-08 1.89215e-08
-1.29563e-07 8.25254e-08 1.99713e-08
-3.38606e-08 1.18287e-07 1.22357e-08
-4.93044e-08 1.16957e-07 1.39633e-08
-4.39969e-08 1.16367e-07 1.18289e-08
-1.14796e-07 9.02754e-08 2.00739e-08
-1.14492e-07 9.21897e-08 1.87453e-08
-1.15189e-07 9.13094e-08 1.83395e-08
-3.08699e-08 -7.9407e-08 2.09898e-09
-2.8607e-08 -8.05631e-08 7.60841e-10
-8.75484e-08 1.21109e-07 -9.84987e-09
1.77835e-07 8.36248e-08 -5.10543e-09
-8.04133e-08 1.26422e-07 -1.13081e-08
1.64925e-07 8.43992e-08 -8.13872e-09
1.62552e-07 8.69656e-08 -8.65971e-09
7.72102e-08 1.0608e-07 5.75646e-09
7.897e-08 1.05509e-07 7.57634e-09
3.66811e-08 1.25013e-07 -1.30677e-09
4.36855e-08 1.2075e-07 -7.17955e-10
1.89112e-07 7.64446e-08 9.12111e-09
1.92472e-07 7.39947e-08 7.00003e-09
1.80994e-07 8.41072e-08 -3.79336e-09
1.87206e-07 8.16851e-08 -2.4596e-09
2.10076e-07 6.88124e-08 -4.28977e-09
1.82733e-07 8.23228e-08 -3.90526e-09
6.45585e-08 1.26003e-07 1.03252e-09
6.32956e-08 1.26017e-07 6.30297e-10
7.25519e-08 1.26667e-07 1.92838e-09
5.69431e-08 -6.67009e-08 1.53543e-08
5.6963e-08 -6.60998e-08 1.39065e-08
1.51117e-07 7.3669e-08 -5.45479e-08
-1.18595e-07 8.56159e-08 2.27578e-08
5.04877e-08 -6.79808e-08 1.46185e-08
-8.96691e-08 9.47646e-08 -2.70833e-08
1.67413e-07 9.2741e-08 -2.05026e-09
1.62699e-07 9.40917e-08 -4.12514e-09
-8.97689e-08 9.7628e-08 -2.80683e-08
-9.22207e-08 9.36492e-08 -2.78386e-08
1.82167e-07 8.46623e-08 4.0168e-09
1.84184e-07 8.25939e-08 3.91108e-09
1.47792e-07 1.05145e-07 4.02381e-09
1.87682e-07 8.23873e-08 3.60235e-09
-1.84967e-07 4.56483e-08 2.35826e-08
-1.86029e-07 4.32586e-08 2.1792e-08
1.64921e-07 9.64667e-08 2.06002e-09
1.6356e-07 9.6196e-08 2.51216e-09
1.6194e-07 9.66076e-08 2.1029e-09
2.09052e-08 1.25025e-07 -4.40874e-09
1.59195e-08 1.21196e-07 -6.54674e-09
3.03111e-08 1.21585e-07 -3.46525e-09
9.74879e-08 1.07799e-07 -7.32892e-09
8.67705e-08 1.08615e-07 -7.41527e-09
1.59146e-07 8.75474e-08 1.16951e-08
1.57913e-07 8.73222e-08 1.03126e-08
2.29345e-07 5.34076e-08 1.40118e-08
2.29978e-07 5.32784e-08 1.36696e-08
-8.19014e-08 9.55295e-08 -2.67623e-08
-8.89443e-08 9.61894e-08 -2.88252e-08
-8.88125e-08 9.33752e-08 -2.85684e-08
1.69428e-07 7.66956e-08 -3.04431e-08
3.90017e-07 -2.24035e-08 -4.16666e-09
4.01235e-07 -2.61625e-08 -4.91341e-08
-3.71493e-08 4.53297e-08 -2.14132e-09
5.80724e-08 1.09169e-07 4.62643e-09
5.73133e-08 1.06937e-07 3.35491e-09
-9.99543e-08 8.91492e-08 -3.06313e-08
-9.47518e-08 9.41365e-08 2.4331e-08
4.06103e-07 -2.60647e-08 -1.88592e-08
-1.62775e-07 5.48618e-08 -3.14418e-08
1.38165e-07 9.15106e-08 -1.00488e-08
1.30549e-07 9.31084e-08 -1.12069e-08
-1.64536e-07 6.13374e-08 2.37852e-08
-1.67055e-07 6.05095e-08 2.38027e-08
-1.35655e-07 1.22404e-08 -9.38859e-09
-1.35005e-07 1.11874e-08 -9.14896e-09
-1.66801e-07 5.41846e-08 -3.25165e-08
-3.57451e-08 1.41758e-07 -1.13388e-08
-8.10404e-08 1.12317e-07 -2.03892e-08
-8.98781e-08 1.07643e-07 -1.91535e-08
-3.13921e-08 1.44353e-07 -8.72723e-09
1.97496e-08 1.30176e-07 -5.81631e-09
1.43167e-07 1.07415e-07 5.29061e-09
4.23737e-08 1.12405e-07 -4.01074e-09
5.20731e-08 1.13077e-07 -4.67265e-09
-6.75503e-08 1.09039e-07 1.68381e-08
2.02422e-08 1.30028e-07 -6.5603e-09
9.15868e-08 9.71016e-08 -2.77903e-08
9.13068e-08 9.87991e-08 -3.04554e-08
2.62815e-08 1.27762e-07 -4.48298e-09
-8.14098e-08 1.1257e-07 1.56665e-08
-3.30347e-08 6.47448e-08 -3.02966e-09
2.35186e-07 5.18737e-08 -1.07812e-08
2.3733e-07 5.03207e-08 -9.46748e-09
-1.25984e-07 8.0431e-08 -3.4675e-08
1.01894e-07 1.04483e-07 -7.8514e-09
-1.24222e-07 8.1445e-08 -3.4571e-08
-1.24317e-07 8.36291e-08 -3.50439e-08
7.16486e-08 1.21853e-07 2.32909e-09
-1.52371e-07 1.37105e-08 -1.13037e-08
1.16585e-07 1.06987e-07 8.12592e-09
1.25064e-07 1.05808e-07 7.65812e-09
3.7821e-07 -5.79593e-09 3.49213e-08
3.877e-07 -1.11772e-08 2.37795e-08
-1.45304e-07 7.70772e-08 -4.97939e-09
-1.43362e-07 7.7173e-08 -6.24372e-09
1.73451e-07 7.62532e-08 9.69233e-09
3.19753e-07 1.54895e-08 -3.61705e-08
3.17386e-07 1.76409e-08 -3.69116e-08
1.74726e-07 7.66798e-08 1.1697e-08
3.80917e-07 -8.07347e-09 3.16832e-08
-1.61155e-07 6.34815e-08 1.70457e-08
-1.77587e-07 -1.99185e-08 -5.02222e-09
-1.75564e-07 -2.11792e-08 -6.02437e-09
-8.47543e-08 9.81605e-08 2.27831e-08
-8.16868e-08 9.86098e-08 2.11113e-08
1.63523e-07 8.95277e-08 7.86161e-09
1.61787e-07 9.13283e-08 6.22921e-09
-1.60765e-07 6.22914e-08 1.8276e-08
-1.56605e-07 6.5013e-08 1.92851e-08
-7.56821e-08 9.75992e-08 -2.43753e-08
3.67473e-08 -6.17284e-08 1.71893e-08
3.03314e-07 2.20829e-08 7.53215e-09
3.05137e-07 2.14663e-08 8.79889e-09
-5.10059e-09 -1.3332e-08 2.7223e-09
-7.53364e-08 9.70918e-08 -2.58386e-08
-1.08079e-07 9.08074e-08 -3.34969e-08
-1.08868e-07 8.95143e-08 -3.27039e-08
-1.09221e-07 8.74978e-08 -3.35294e-08
-7.23262e-08 -5.79019e-08 -5.62575e-09
-7.8579e-08 -5.50987e-08 -5.12191e-09
-2.13984e-08 6.07505e-09 -2.79424e-10
-7.89927e-08 -5.56514e-08 -6.34243e-09
-9.43728e-08 9.60322e-08 2.29304e-08
-5.41697e-08 -6.31331e-08 -1.55154e-09
-5.47198e-08 -6.31241e-08 -2.57872e-09
-9.50106e-08 9.42159e-08 2.2851e-08
3.51921e-08 1.13925e-07 -1.22196e-09
-1.12395e-08 1.46427e-07 -7.80247e-09
2.55028e-09 1.4828e-07 -7.42613e-09
2.63786e-08 1.11554e-07 -2.75911e-09
-9.64279e-08 9.13656e-08 2.58983e-08
-8.68551e-08 -5.94095e-08 -5.33315e-09
-8.75236e-08 -6.01839e-08 -6.70774e-09
-9.35477e-08 9.28509e-08 2.52133e-08
-9.3351e-08 9.52954e-08 2.57453e-08
9.6993e-08 -5.61548e-08 8.19591e-09
9.63376e-08 -5.66719e-08 6.74033e-09
-5.00168e-08 -7.80612e-08 -2.26645e-10
-5.22408e-08 -7.95537e-08 -1.64972e-09
2.17337e-07 5.79494e-08 -3.70488e-08
2.16534e-07 5.58996e-08 -3.30049e-08
-7.39264e-08 1.11567e-07 1.63425e-08
-5.83165e-08 -7.74757e-08 -1.05501e-09
-1.56475e-07 3.44274e-08 -2.0575e-08
-1.58037e-07 3.48675e-08 -2.14433e-08
1.96619e-07 -3.20829e-08 -1.84712e-08
-5.05015e-08 -5.84676e-09 1.66485e-09
-4.7017e-08 -5.77401e-09 -1.77611e-09
-4.57359e-08 -8.13615e-09 -1.82952e-09
1.92083e-07 -3.26703e-08 -1.87713e-08
1.91063e-07 -3.18293e-08 -1.77268e-08
-2.15287e-08 5.25343e-08 3.11014e-09
-1.96883e-08 5.64848e-08 4.09147e-09
8.92504e-08 1.09585e-07 6.65021e-09
2.00834e-07 6.45299e-08 1.85459e-08
1.97347e-07 6.37489e-08 1.67254e-08
1.30625e-07 -3.11072e-08 -1.46678e-08
1.26613e-07 -2.88566e-08 -1.25168e-08
2.30228e-07 5.83886e-08 -3.56291e-09
2.32866e-07 5.71707e-08 -1.47001e-09
-4.77702e-08 1.31369e-07 9.12812e-09
-5.1727e-08 1.31507e-07 9.95667e-09
-4.84663e-08 1.34244e-07 7.44653e-09
4.75611e-08 1.2666e-07 -2.69224e-09
4.10892e-08 1.29841e-07 -1.19802e-09
1.58931e-08 1.19977e-07 -5.40585e-09
1.50362e-08 1.18766e-07 -6.04383e-09
3.98163e-08 1.32925e-07 -2.99149e-09
3.10992e-08 1.36135e-07 -3.86652e-09
4.22491e-08 1.32271e-07 -2.21904e-09
-1.64658e-08 -7.02559e-08 4.7172e-09
-1.80447e-08 -7.19258e-08 3.22355e-09
1.30551e-08 -6.62712e-08 1.06347e-08
1.28835e-08 -6.71829e-08 9.72814e-09
3.85614e-08 1.29949e-07 2.64457e-10
-4.69757e-08 1.2702e-07 1.23895e-08
-4.54659e-08 1.2827e-07 9.96461e-09
-3.25786e-08 1.14389e-07 1.23942e-08
-3.15043e-08 1.17077e-07 1.16304e-08
-7.28294e-08 -3.49832e-08 1.96255e-09
-4.24878e-08 1.25971e-07 1.26802e-08
1.43969e-07 1.81527e-08 2.52782e-08
1.33079e-07 1.61214e-08 2.18609e-08
-7.74144e-08 1.09164e-07 1.73073e-08
7.31215e-08 1.46112e-07 -1.7929e-09
1.54818e-08 3.96546e-08 9.87696e-09
-3.64868e-08 1.25027e-07 1.08094e-08
-1.65993e-07 6.20266e-08 -3.39918e-08
-1.72021e-07 5.87189e-08 -3.28745e-08
2.73317e-07 3.60867e-08 -3.03258e-09
-1.66516e-07 6.08706e-08 -3.41243e-08
-1.53404e-08 1.48596e-07 -7.02941e-09
-1.77664e-09 1.50909e-07 -6.86189e-09
-1.82071e-07 -1.65497e-08 1.14196e-09
-1.83819e-07 -1.54538e-08 1.4619e-11
2.24277e-07 5.59951e-08 3.85703e-08
2.18583e-07 6.04678e-08 4.14903e-08
1.2113e-07 1.01433e-07 -9.56087e-09
-1.6345e-07 6.20062e-08 2.31138e-08
-1.63286e-07 6.0352e-08 2.23234e-08
-7.78899e-08 2.12818e-08 -5.53669e-09
-7.82884e-08 2.28479e-08 -5.54813e-09
-1.6357e-07 6.19637e-08 2.19847e-08
7.55653e-08 1.01942e-07 1.70073e-08
-4.78326e-09 6.00702e-08 -1.06435e-08
-5.43199e-09 6.01923e-08 -1.03597e-08
6.4023e-08 1.04862e-07 1.63423e-08
1.37809e-07 -3.82716e-08 -1.29625e-08
1.4218e-07 -3.774e-08 -1.12855e-08
3.38751e-07 5.42597e-09 3.81956e-09
3.42757e-07 4.1949e-09 2.74197e-09
-1.63609e-09 1.1146e-07 -2.28875e-09
2.29262e-07 5.84831e-08 5.69136e-09
1.16685e-07 9.32811e-08 -2.82453e-08
1.10521e-07 9.87578e-08 -2.85191e-08
1.04576e-08 1.10534e-07 2.38117e-09
1.00116e-08 1.09124e-07 -1.98204e-10
1.73386e-08 1.22505e-07 -5.30802e-09
3.10734e-08 1.4108e-07 -4.5772e-09
-1.68537e-07 2.69458e-08 1.49843e-08
-1.66833e-07 2.67447e-08 1.45231e-08
1.53367e-07 9.45862e-08 -7.01061e-09
1.56252e-07 1.00138e-07 3.08064e-09
1.58446e-07 9.78412e-08 4.39196e-09
1.59534e-07 9.75244e-08 4.53611e-09
-2.39628e-08 8.79034e-08 6.19146e-10
1.15078e-07 1.04172e-07 6.26813e-09
1.89673e-07 8.0389e-08 2.89709e-09
1.92314e-07 8.00308e-08 2.55546e-09
1.04287e-07 1.06729e-07 8.11285e-09
-2.49654e-08 -8.73886e-08 1.14698e-09
-1.94543e-08 -8.5087e-08 -3.45134e-10
1.01744e-07 1.08322e-07 6.21645e-09
2.1554e-07 5.89139e-08 -1.52278e-08
-2.49528e-09 1.80569e-08 3.00845e-09
-2.7269e-09 1.52891e-08 2.43745e-09
2.14267e-07 5.81843e-08 -1.25794e-08
2.22558e-07 5.62671e-08 -1.40787e-08
2.25705e-07 5.40735e-08 -1.15012e-08
2.11823e-07 6.03615e-08 -1.41308e-08
-8.83767e-09 1.34697e-08 -2.21799e-09
-9.27958e-09 1.62816e-08 -2.74969e-09
7.58823e-08 1.45416e-07 -2.27008e-09
-2.8329e-09 -7.07752e-08 -4.42703e-09
4.44923e-09 -7.15716e-08 -4.54755e-09
6.61886e-08 1.47346e-07 -3.53378e-09
-6.32126e-08 1.36628e-07 -7.8957e-09
5.81963e-08 1.49679e-07 -2.53526e-09