# vtk DataFile Version 2.0
S, Created by Mohamad Ibrahim Cheikh
ASCII
DATASET UNSTRUCTURED_GRID
POINTS 23916 double
-137.184 69.1996 101.643
-140.188 67.1064 102.541
-300.121 -58.6896 54.3317
-297.143 -57.8799 57.1315
-348.484 26.5673 43.0124
2.03706 4.92178 131.906
-309.263 63.9348 40.3315
-310.834 -53.6858 52.0849
-309.249 61.8852 43.4235
-340.706 -27.3505 49.6401
-337.499 -26.7685 52.5541
-343.3 -23.4026 49.4702
-341.743 -20.2724 52.1016
65.1927 39.8616 -123.753
68.7839 42.1031 -122.768
-331.695 -42.9419 45.9346
-333.601 -39.6952 47.1488
-19.3948 19.4699 130.38
-358.013 8.06616 -40.8238
-359.561 4.86503 -39.6482
-339.382 21.4919 53.4838
-160.148 -102.939 60.7256
-160.138 -101.136 63.6866
-313.105 -67.4863 -29.4471
-315.743 -67.1359 -26.6691
-154.923 73.112 -95.6043
-151.357 74.8172 -94.9822
-339.72 24.7025 51.8087
-282.575 33.1952 80.9084
-248.296 84.5421 52.237
-244.291 86.08 52.0367
-161.639 64.3308 100.433
-159.33 66.567 99.4224
-285.33 30.2004 80.8981
-334.807 0.620597 60.8249
-332.276 3.53087 62.4045
-243.272 100.125 12.3862
-247.024 -12.5337 98.9751
-250.019 -14.5921 97.7651
-214.629 -92.967 -56.0472
-218.415 -93.2556 -53.729
-214.031 -85.9543 66.5389
-217.229 -86.518 64.5084
-206.379 -92.479 60.4737
-217.11 9.38877 107.54
-215.269 13.0617 107.61
-209.782 -92.8457 58.4442
-184.881 109.987 33.7928
-185.728 108.848 36.7808
-283.761 1.943 86.9603
-281.943 5.4635 87.5323
321.777 18.7017 -66.3153
323.475 15.2106 -66.1968
-260.802 26.8382 91.5221
-263.085 23.7419 91.5777
11.9411 7.48341 -131.721
-316.264 -53.4279 -48.2037
-314.052 -52.8716 -50.5315
-324.705 -53.5302 -40.6237
192.274 74.1423 86.0277
-321.94 -53.6666 -43.0644
34.4601 95.4257 -90.4022
-236.21 101.867 -14.6993
-240.012 100.718 -15.0726
-322.721 -54.7142 40.9803
-324.942 -52.3202 41.9467
-26.9653 12.447 -131.073
-128.494 120.059 31.4391
-131.611 119.17 33.1956
11.1419 14.063 131.191
7.47162 16.2853 130.965
-240.579 33.7914 95.8963
-243.506 31.4169 95.799
-308.973 46.251 59.976
-243.857 33.7476 -94.8928
-15.2006 21.1392 130.188
-245.952 36.5152 -93.1908
-243.384 -14.3621 99.8273
-243.254 -18.3049 99.219
301.109 -14.7753 78.1366
299.961 -11.4733 79.2241
-296.125 62.1462 53.1595
-299.951 61.2969 51.4929
-109.968 118.039 44.8348
-107.754 117.106 47.84
-239.773 76.3133 67.5398
-244.098 74.7016 67.4446
-312.023 43.1297 60.367
-349.329 22.6385 44.3981
-360.152 17.5382 -35.1571
-362.561 17.4186 -32.0477
-189.891 -83.2116 -78.0074
-190.983 -80.5402 -80.4467
8.47428 -8.80953 131.672
-337.038 37.5971 -45.8585
-241.31 -62.3741 -80.0268
-243.518 -59.8487 -81.1287
-199.183 84.2075 73.9986
-195.571 83.9264 75.4828
-191.921 -75.7295 -84.7319
-160.091 95.0205 72.5072
-342.763 35.6863 -42.0302
-247.287 87.6319 47.5173
-250.076 85.7425 49.1495
-297.624 24.9829 -77.1684
61.1783 -8.06439 -130.003
-299.932 22.0589 -76.9653
-350.999 -29.4359 38.3931
-348.343 -31.8705 39.3976
-321.153 63.7417 -27.085
31.0581 18.3512 -130.266
-317.727 65.6436 -27.4868
-339.806 38.0179 -42.9166
-197.732 108.207 -30.4699
-194.066 109.232 -29.6888
-192.095 110.557 -26.1415
-195.843 110.203 -24.1587
-171.446 -117.059 -11.0645
-174.623 -115.761 -17.0336
-345.727 37.6122 37.0888
-295.553 -73.9326 -35.5454
-292.107 -75.3974 -35.9538
-174.415 -116.331 -12.9126
35.6914 21.4746 129.641
-26.9375 9.43424 131.325
-23.6452 11.1019 131.272
-249.55 -21.9308 96.5333
68.5844 -15.1462 128.914
-24.6676 1.06766 131.713
-251.431 -18.3581 96.6809
-261.609 43.6542 84.4942
-293.661 -68.1921 47.0727
-257.448 45.6264 85.0154
-22.9071 -2.13449 131.739
-255.765 48.3969 84.1002
-26.824 6.21131 131.519
-256.107 86.3257 -44.0629
-256.102 88.0499 -40.5118
-192.531 61.2598 95.5665
-195.828 60.563 95.1896
-248.529 88.9904 44.0748
-262.448 -81.5501 48.3806
-296.56 -63.5763 51.1328
-296.85 -66.0319 47.6991
-283.584 19.8117 -84.7683
-285.448 16.6211 -84.6878
301.964 54.3818 -57.4731
304.346 52.2293 -57.9291
304.852 49.5341 -59.936
-39.2578 -19.2958 -129.858
-266.676 92.7284 -10.8937
-209.106 93.4563 57.7635
-211.676 91.7358 59.3534
-75.6339 121.437 -44.4596
-358.91 28.0589 -29.4222
-268.699 92.3402 -7.61232
-375.222 8.95092 10.3283
-376.224 6.42473 7.30341
-266.297 93.3469 -5.319
-350.433 47.4223 -11.843
-347.866 49.9274 -10.7623
178.702 94.1224 68.2293
177.396 96.5036 65.2554
173.093 97.2439 65.5705
-360.672 -6.17298 -38.2051
-357.968 -7.13819 -41.0447
-83.3744 119.302 -48.3744
-326.247 62.8429 21.062
-328.604 61.0931 21.715
-330.087 59.0181 24.5189
-328.908 58.4453 27.632
115.159 -119.842 -37.9259
-332.41 -53.2337 -32.5896
-335.651 -51.4431 -31.3754
112.577 -119.23 -40.7022
108.758 -119.695 -40.6088
-190.922 88.6504 71.431
-191.287 86.3498 74.0802
-353.6 -34.0132 30.9719
-350.857 -37.1797 31.1516
-80.0392 120.479 -46.0925
-316.895 -61.5548 36.6089
-261.83 -27.6397 -90.9223
-313.356 -62.5617 38.5786
-310.623 -65.2263 36.8328
-327.303 -0.528698 -65.6362
-329.445 -2.92078 -64.2465
-181.054 -103.459 -52.0281
-328.875 -6.88957 -64.3008
-239.461 -93.0497 41.7781
-282.364 65.3943 58.1918
-285.259 63.1357 58.9527
-328.665 -32.3732 -56.1334
-329.215 -35.292 -53.9367
-326.665 -41.1301 -51.6501
-324.26 -44.269 -50.9051
-307.902 -33.085 -68.7208
-311.977 -31.6588 -67.124
-302.396 45.9189 64.1873
-303.961 41.9487 65.9751
-199.649 107.739 30.5975
-203.214 106.852 30.8355
-279.874 13.5814 -87.4621
-278.805 9.94755 -88.3643
-280.31 26.3853 -84.3089
-278.319 29.2615 -84.1673
-182.738 86.4591 -76.5538
-181.974 84.0044 -79.4547
-290.47 -53.6864 -64.8998
-286.581 -54.9265 -65.97
-186.206 -104.635 -47.2288
-166.364 -117.133 17.7607
-256.463 -58.4519 -77.1667
-293.811 82.5272 -6.66625
-259.166 66.5297 69.0978
-295.44 81.4105 -10.4899
-185.121 -103.375 -50.4175
-181.423 -113.921 20.4015
59.1648 5.46982 130.252
56.1312 7.51809 130.314
-178.499 -115.023 17.114
-72.514 -116.611 -56.41
-228.22 64.3211 83.1269
-226.842 67.5931 80.9643
-237.308 -81.5338 -62.3019
-234.812 -80.2475 -65.0686
-342.996 31.2219 45.2299
-231.873 62.5166 83.2658
61.7157 75.9539 -105.777
-15.8212 -14.5162 131.083
-220.24 69.5364 -81.5481
-218.726 67.4275 -83.7873
-358.349 18.1741 37.0398
32.5577 -16.0843 -130.52
58.3044 78.0912 -104.449
-231.456 -44.2833 94.362
-232.194 -47.1101 92.7572
217.964 -104.304 26.9866
213.897 -105.406 26.6865
212.405 -106.534 23.4701
-68.7312 124.884 -35.3493
-267.517 88.9662 -27.3356
-269.806 87.2498 -29.9856
-69.3818 123.629 -39.3759
-317.626 -0.815732 -71.2163
338.06 23.6314 53.6066
-41.5653 10.5838 -130.769
-45.5021 11.579 -130.524
-290.904 75.5835 36.7486
334.377 19.131 58.046
337.349 20.6514 55.3568
-278.256 -14.7864 87.8977
-275.252 -17.286 88.597
-211.038 -0.730148 109.411
-212.254 -4.04181 109.05
-87.4329 109.069 67.7642
-90.2647 109.935 65.8846
-377.142 -2.34413 -2.10832
-303.335 -70.1985 -35.0871
-301.653 -72.6501 -31.7086
-233.017 -89.606 52.4135
-376.577 -7.64279 1.92748
-376.798 -6.16284 -1.92301
-272.754 -90.5183 11.0575
-281.027 -87.6858 8.13138
-275.515 -89.2261 13.0067
-279.28 -87.9838 11.5592
9.73167 15.8665 -130.999
-352.228 -12.917 45.4741
-249.298 48.6738 86.2895
-245.588 50.5403 86.5185
-342.359 55.1905 -5.29293
-344.983 53.3216 -3.14976
-252.738 -63.971 -74.2379
-0.223954 2.52149 131.976
-352.055 -9.56404 -46.4564
-352.618 -5.20663 -46.6254
-314.227 66.9112 29.2963
-147.069 83.7022 -88.1468
-251.922 -35.1446 -91.7541
-248.434 -35.492 -92.7792
-141.472 88.1203 -84.9026
-143.526 85.6216 -87.011
-304.485 -67.2558 39.3697
-307.395 -65.208 40.041
-301.219 -67.581 41.8134
-330.786 -17.4356 61.0224
-332.563 -23.5798 57.6839
-330.508 -20.9428 60.0968
-312.403 -58.3243 45.5366
-315.505 -56.6796 44.9924
-317.795 -57.15 42.3463
336.587 -17.8405 -56.8814
339.268 -15.5944 -55.5767
-362.605 -32.8645 -15.698
-292.906 78.4555 27.6571
-364.722 -29.3674 -16.6017
-288.486 73.6123 42.6152
-292.036 71.6051 43.0722
-291.698 30.6612 -77.8879
-289.232 32.5632 -78.2412
-334.01 11.8609 -60.2052
-331.723 14.8074 -61.0938
-263.301 85.1665 -41.0232
-260.054 87.0836 -39.5061
-295.465 79.3098 21.1142
-290.348 82.5076 17.1869
-253.008 96.2575 17.9257
-292.246 80.9088 20.525
-343.146 22.4406 -50.0433
-346.336 22.0402 -47.4642
-346.543 25.5064 -45.503
298.909 46.1369 66.0047
302.396 45.2186 64.6823
-40.9133 84.9379 100.023
-288.564 -63.525 56.5143
303.375 41.5936 66.5275
-285.029 -52.2679 -68.8888
-315.006 70.5085 17.4333
-317.241 68.5423 20.1089
-282.18 -51.6583 -70.7591
-279.384 -54.1307 -70.2673
-296.89 79.5539 -17.4282
-293.118 81.3478 -16.9568
-334.78 58.729 -15.912
-291.953 82.5326 -13.2967
-141.722 -103.452 65.2892
-138.767 -104.722 64.0291
-322.225 68.1327 -8.37132
-321.211 67.7437 -14.2414
-323.182 67.0842 -11.6746
-333.991 5.16943 -61.1566
-331.88 2.42339 -62.7145
-332.09 8.84614 -61.9971
-319.694 39.7816 57.6932
-320.365 35.8714 59.7642
-280.787 70.114 -53.4362
-284.4 69.5641 -51.7904
-177.576 106.448 -47.2465
-174.773 105.841 -49.82
-167.953 -47.5101 -108.228
-169.169 -50.6347 -106.566
-173.058 -51.8929 -105.188
-158.525 79.1018 89.9455
61.5077 129.56 -13.2303
57.602 129.764 -13.3781
-23.7499 4.03459 131.676
-285.569 22.5669 -83.2501
-288.725 21.9517 -82.0734
-252.716 -60.6885 -76.9536
-284.986 -52.4565 68.767
64.7043 129.607 -10.6524
-122.005 -92.1345 -84.3377
-291.806 60.7191 57.5511
-293.1 57.9395 59.5759
-220.251 -92.7005 53.7722
-221.247 -94.1909 50.5875
9.29536 -71.6055 -110.843
12.8497 -71.0566 -111.152
-123.287 -94.6785 -81.2347
-369.471 -12.7214 -23.4367
-342.927 -37.1754 -40.5496
-341.06 -41.2457 -38.4893
-371.346 -10.5726 -20.7196
-348.083 4.71013 -50.6747
-335.864 56.3471 -20.9344
-307.176 17.2861 74.6525
-307.179 20.818 73.7444
-329.116 -33.0635 55.403
-344.727 4.3828 -53.4373
-132.124 48.2857 113.821
-128.638 50.0244 113.559
-342.499 7.20084 -54.867
-342.403 -35.736 42.3464
-47.3988 3.43168 130.909
-181.494 109.339 37.8966
-178.007 110.433 36.7314
-207.348 -74.3895 -81.4035
-316.708 42.6051 57.6933
-213.739 -73.4848 -80.1924
-210.283 -72.3064 -82.353
-340.319 25.962 -50.6997
-0.0366731 -83.4596 -102.267
-323.95 47.3664 -48.2918
-323.085 50.5462 -45.7092
35.881 129.191 -24.0033
41.773 129.783 -19.1527
-315.112 -72.5049 -3.19974
[...]
POINT_DATA 23916
VECTORS F double
1.38855e-07 7.84073e-08 -3.0436e-08
1.35687e-07 8.11648e-08 -3.04059e-08
-1.03224e-07 8.46276e-08 2.16062e-08
-1.02713e-07 8.64502e-08 2.21785e-08
6.98773e-08 1.1862e-07 -3.95402e-09
-3.60607e-08 2.58419e-08 -8.96047e-10
1.4193e-07 8.92352e-08 -8.21436e-09
-9.78126e-08 8.87433e-08 2.00047e-08
1.36264e-07 8.87042e-08 -7.60704e-09
-5.4906e-08 1.09903e-07 1.44164e-08
-5.37066e-08 1.10919e-07 1.42706e-08
-4.84231e-08 1.15076e-07 1.3298e-08
-4.02338e-08 1.135e-07 1.18526e-08
2.86708e-08 -1.29708e-08 -2.32885e-09
3.16182e-08 -1.63451e-08 -3.43668e-09
-8.57223e-08 9.85588e-08 1.63526e-08
-7.98341e-08 1.02614e-07 1.72355e-08
-1.03446e-08 4.90215e-08 -7.50884e-09
2.8376e-08 1.286e-07 -5.05775e-09
1.98128e-08 1.31403e-07 -5.87473e-09
5.56763e-08 1.15399e-07 -3.11782e-09
-1.72765e-07 4.66195e-08 2.32447e-08
-1.69096e-07 4.75045e-08 2.33824e-08
-1.24203e-07 7.8652e-08 -1.85682e-08
-1.23732e-07 7.77431e-08 -1.63592e-08
1.53079e-07 7.23847e-08 2.49853e-08
1.54103e-07 7.18455e-08 2.65274e-08
6.39832e-08 1.16437e-07 -4.15137e-09
7.5311e-08 9.63005e-08 -7.3079e-09
1.74694e-07 6.83947e-08 -9.03007e-09
1.75768e-07 6.74096e-08 -1.04853e-08
1.29053e-07 8.44157e-08 -2.86423e-08
1.32515e-07 8.2228e-08 -2.90552e-08
6.96559e-08 1.00035e-07 -7.26605e-09
7.79977e-09 1.18296e-07 4.04948e-09
1.37355e-08 1.15234e-07 2.43408e-09
2.06994e-07 6.18819e-08 -2.48896e-09
-1.46082e-08 1.02451e-07 8.51015e-09
-1.53621e-08 1.0096e-07 1.02591e-08
-1.50355e-07 6.23498e-08 -3.29288e-08
-1.49865e-07 6.05679e-08 -3.05385e-08
-1.439e-07 6.58244e-08 2.83615e-08
-1.43458e-07 6.41299e-08 2.68659e-08
-1.55577e-07 5.9362e-08 2.57759e-08
2.52408e-08 1.04763e-07 -2.90744e-09
3.59821e-08 1.00979e-07 -3.44427e-09
-1.55534e-07 5.81564e-08 2.40381e-08
2.26782e-07 4.8877e-08 -7.17991e-09
2.22357e-07 4.89996e-08 -7.54276e-09
1.21595e-08 1.0585e-07 2.49274e-09
2.01408e-08 1.02911e-07 1.51917e-09
2.1143e-08 -7.18568e-08 -7.70429e-09
1.64035e-08 -7.45602e-08 -7.3188e-09
6.10503e-08 9.57599e-08 -6.78175e-09
5.38844e-08 1.00022e-07 -6.97877e-09
-2.36108e-08 3.00055e-08 1.4426e-09
-9.5141e-08 8.93795e-08 -2.26428e-08
-9.49035e-08 9.10763e-08 -2.30818e-08
-1.00158e-07 9.03866e-08 -2.10903e-08
8.11432e-08 -5.2324e-08 2.28914e-08
-1.00216e-07 9.15211e-08 -2.2329e-08
1.55661e-07 2.98249e-08 3.87468e-08
2.09277e-07 5.99759e-08 3.90575e-09
2.07924e-07 6.13145e-08 4.35591e-09
-1.04906e-07 8.8518e-08 1.70394e-08
-1.01891e-07 9.19572e-08 1.80635e-08
-9.43516e-09 6.76149e-08 6.65853e-09
2.55273e-07 3.54366e-08 -7.59053e-09
2.5186e-07 3.69146e-08 -1.02669e-08
-2.13178e-08 2.109e-08 -2.03907e-09
-1.89214e-08 2.58462e-08 -3.08172e-09
7.18232e-08 9.29663e-08 -1.06987e-08
6.91829e-08 9.45121e-08 -9.46521e-09
1.04434e-07 9.54389e-08 -7.73042e-09
7.94536e-08 9.37082e-08 8.32837e-09
-9.28181e-09 4.7793e-08 -7.89302e-09
8.2197e-08 9.48881e-08 1.06206e-08
-1.438e-08 1.02309e-07 1.04269e-08
-2.34988e-08 1.01051e-07 1.15895e-08
-2.9683e-08 -7.01461e-08 7.4016e-10
-2.51371e-08 -6.85511e-08 1.72479e-09
1.35294e-07 8.74785e-08 -9.99636e-09
1.3401e-07 8.72434e-08 -8.28234e-09
2.5445e-07 3.51996e-08 -1.62639e-08
2.52877e-07 3.45986e-08 -1.49596e-08
1.55518e-07 7.06395e-08 -1.22213e-08
1.54289e-07 7.13342e-08 -1.06435e-08
9.88961e-08 9.93704e-08 -8.41281e-09
5.88654e-08 1.19811e-07 -4.3864e-09
5.26036e-08 1.3146e-07 -3.95964e-10
5.17516e-08 1.31641e-07 -1.31302e-10
-1.35947e-07 7.0488e-08 -3.46745e-08
-1.29747e-07 7.32591e-08 -3.56327e-08
-5.60667e-08 1.80785e-08 1.65133e-09
9.54685e-08 1.10795e-07 4.93187e-09
-9.5353e-08 8.41423e-08 -3.03801e-08
-9.25517e-08 8.72892e-08 -3.03815e-08
1.71053e-07 6.66025e-08 -1.94206e-08
1.72548e-07 6.81169e-08 -2.10027e-08
-1.22057e-07 7.76513e-08 -3.55538e-08
1.97187e-07 6.05147e-08 -2.6001e-08
9.24344e-08 1.13262e-07 3.87627e-09
1.80754e-07 6.6794e-08 -8.01545e-09
1.76819e-07 6.91397e-08 -1.04693e-08
6.10397e-08 1.01838e-07 4.14711e-09
-4.36542e-08 -1.14435e-08 -1.80526e-09
5.56593e-08 1.0526e-07 3.61287e-09
-6.65765e-08 1.14413e-07 1.32016e-08
-6.92767e-08 1.10704e-07 1.45619e-08
1.47417e-07 9.30358e-08 4.947e-09
-8.04946e-09 1.47883e-08 1.84832e-09
1.49433e-07 9.11214e-08 6.13599e-09
9.56615e-08 1.11396e-07 5.94775e-09
2.21952e-07 5.20206e-08 8.39817e-09
2.23091e-07 5.07681e-08 8.25159e-09
2.27845e-07 5.00342e-08 6.62286e-09
2.26244e-07 5.0396e-08 5.34395e-09
-1.90286e-07 3.48899e-08 -8.13931e-09
-1.87076e-07 3.62597e-08 -1.16185e-08
9.40495e-08 1.13229e-07 -7.49338e-09
-1.29074e-07 7.38768e-08 -2.2264e-08
-1.29302e-07 7.23965e-08 -2.32047e-08
-1.89184e-07 3.59306e-08 -1.08478e-08
-1.0191e-08 1.33898e-09 1.21693e-10
-2.52188e-08 5.08729e-08 -4.28796e-09
-2.41908e-08 4.98799e-08 -4.7519e-09
-2.90158e-08 9.89714e-08 1.33013e-08
-5.6543e-08 -2.14537e-08 1.16233e-09
-3.89765e-08 4.68447e-08 -1.27343e-09
-2.36559e-08 1.02687e-07 1.19668e-08
9.26187e-08 8.75166e-08 -1.01071e-08
-1.18951e-07 7.70932e-08 2.08292e-08
9.33709e-08 8.8562e-08 -1.29125e-08
-4.47918e-08 4.31155e-08 -2.54974e-10
1.00709e-07 8.54338e-08 -1.16668e-08
-3.17635e-08 5.03035e-08 -3.16883e-09
1.79721e-07 6.93098e-08 7.89792e-09
1.84404e-07 6.95733e-08 8.4912e-09
1.26207e-07 8.53483e-08 -2.35804e-08
1.25406e-07 8.42933e-08 -2.20444e-08
1.84095e-07 6.76699e-08 -9.53847e-09
-1.3814e-07 6.80247e-08 2.29173e-08
-1.11745e-07 8.0792e-08 2.11065e-08
-1.1792e-07 8.01224e-08 2.10701e-08
5.15589e-08 1.00222e-07 2.30612e-09
4.36356e-08 1.03472e-07 2.30093e-09
6.78754e-08 -6.05363e-08 -1.36195e-08
6.64568e-08 -6.25858e-08 -1.36815e-08
6.16849e-08 -6.35897e-08 -1.41416e-08
-5.61117e-08 6.30556e-08 -7.29272e-09
1.93976e-07 6.86002e-08 2.56938e-09
1.90304e-07 5.89561e-08 -1.10427e-08
1.87275e-07 6.07274e-08 -1.20888e-08
2.65542e-07 2.60772e-08 1.59211e-08
7.95234e-08 1.25788e-07 1.192e-09
1.92899e-07 6.89309e-08 2.5382e-09
2.77716e-08 1.44777e-07 -1.94178e-09
2.0081e-08 1.45467e-07 -1.31181e-09
1.95201e-07 6.82702e-08 1.63328e-09
1.2277e-07 1.1179e-07 2.87432e-09
1.2711e-07 1.08746e-07 1.47483e-09
1.16239e-07 -4.68566e-08 2.73653e-08
1.22487e-07 -4.49536e-08 2.57134e-08
1.22281e-07 -4.52634e-08 2.76074e-08
-1.04134e-08 1.29576e-07 -8.90079e-09
-1.10193e-08 1.28614e-07 -1.0602e-08
2.58232e-07 3.00132e-08 1.95288e-08
1.45694e-07 9.39494e-08 -4.01812e-09
1.43041e-07 9.58063e-08 -4.53132e-09
1.37876e-07 9.67105e-08 -5.53554e-09
1.36708e-07 9.62216e-08 -4.29541e-09
-1.70189e-07 -2.0386e-08 1.14953e-09
-1.04381e-07 9.16677e-08 -1.93872e-08
-1.03561e-07 9.35064e-08 -1.76748e-08
-1.70543e-07 -2.00605e-08 1.01318e-09
-1.71026e-07 -1.94207e-08 1.16467e-09
1.81619e-07 6.50348e-08 -2.12805e-08
1.75293e-07 6.54059e-08 -2.08222e-08
-8.00747e-08 1.12172e-07 1.12613e-08
-8.41547e-08 1.07309e-07 1.20313e-08
2.63516e-07 2.75435e-08 1.59713e-08
-1.16033e-07 8.25402e-08 1.58144e-08
-3.72724e-08 9.99162e-08 -1.72328e-08
-1.16138e-07 8.24735e-08 1.82514e-08
-1.19287e-07 7.89654e-08 1.66742e-08
1.01357e-08 1.13195e-07 -7.09982e-09
5.71965e-09 1.15215e-07 -8.82876e-09
-1.68861e-07 5.17147e-08 -3.08927e-08
-4.1021e-09 1.13194e-07 -9.55968e-09
-1.53345e-07 5.75761e-08 2.06276e-08
1.39046e-07 8.28111e-08 -1.04577e-08
1.35786e-07 8.54893e-08 -1.11136e-08
-5.78795e-08 1.06191e-07 -1.97523e-08
-6.58923e-08 1.06012e-07 -2.01259e-08
-7.64579e-08 1.01545e-07 -2.16596e-08
-8.07473e-08 9.71421e-08 -2.15061e-08
-5.18363e-08 1.02781e-07 -2.10483e-08
-5.17549e-08 1.03312e-07 -1.92767e-08
1.03995e-07 9.47736e-08 -7.81706e-09
9.31528e-08 9.7169e-08 -9.23848e-09
2.20471e-07 5.16854e-08 -5.86774e-09
2.19628e-07 5.24055e-08 -4.38966e-09
3.89012e-08 1.0339e-07 8.14347e-10
3.26731e-08 1.0142e-07 -1.20396e-09
6.56989e-08 9.98865e-08 4.51719e-09
7.19131e-08 9.71233e-08 4.65207e-09
1.75616e-07 6.37395e-08 2.06635e-08
1.72917e-07 6.39517e-08 1.91278e-08
-8.90079e-08 9.07125e-08 -2.62667e-08
-8.88119e-08 9.0215e-08 -2.78782e-08
-1.70275e-07 5.0069e-08 -2.87357e-08
-1.9063e-07 3.39447e-08 5.25178e-09
-9.22656e-08 8.70937e-08 -2.84287e-08
1.78564e-07 7.79878e-08 1.93572e-09
1.36157e-07 7.98937e-08 -1.44005e-08
1.75899e-07 7.84307e-08 2.16197e-09
-1.68732e-07 5.09669e-08 -2.8651e-08
-1.86067e-07 3.74816e-08 6.7189e-09
-2.95451e-08 -1.61425e-08 2.32094e-09
-2.83547e-08 -1.35601e-08 2.27762e-09
-1.88444e-07 3.63837e-08 3.90188e-09
-1.89388e-07 2.43462e-08 -2.05224e-08
1.31157e-07 7.62572e-08 -1.49202e-08
1.40952e-07 7.41414e-08 -1.35476e-08
-1.28048e-07 7.06041e-08 -3.26852e-08
-1.27926e-07 7.26323e-08 -3.30564e-08
7.83247e-08 1.15137e-07 -6.75852e-09
1.29502e-07 7.69098e-08 -1.35925e-08
9.42112e-08 -8.43551e-09 6.72502e-10
-6.32258e-08 3.46459e-08 2.90246e-09
1.45098e-07 7.54144e-08 1.63291e-08
1.41688e-07 7.42644e-08 1.448e-08
5.14399e-08 1.26902e-07 -1.33654e-09
-5.74537e-08 8.67576e-09 -2.82375e-09
9.82279e-08 -3.46905e-09 4.11938e-09
-7.06302e-08 9.32685e-08 2.25597e-08
-7.74903e-08 9.34812e-08 2.3729e-08
-1.43035e-07 -3.74084e-08 -3.14511e-09
-1.43709e-07 -3.65301e-08 -3.26462e-09
-1.45893e-07 -3.62183e-08 -2.75116e-09
2.79102e-07 2.27423e-08 1.39058e-08
1.87109e-07 7.06485e-08 5.74646e-09
1.83146e-07 7.18516e-08 7.3123e-09
2.74268e-07 2.31454e-08 1.3503e-08
1.02859e-08 1.10084e-07 -6.87755e-09
3.07146e-08 -7.60815e-08 9.82479e-09
-5.36592e-09 7.87515e-08 6.58256e-09
-5.20651e-09 8.16568e-08 7.46612e-09
1.61384e-07 7.89064e-08 -5.88485e-09
2.32574e-08 -7.52916e-08 8.41234e-09
2.4986e-08 -7.5398e-08 9.48587e-09
-2.00717e-08 1.02901e-07 9.53107e-09
-2.11536e-08 1.0151e-07 1.17594e-08
8.49232e-09 1.01798e-07 2.68483e-09
5.69999e-11 1.03619e-07 3.85411e-09
2.37716e-07 4.57691e-08 -3.61161e-08
2.34711e-07 4.39267e-08 -3.39268e-08
-7.25737e-09 1.45356e-07 -2.68096e-09
-1.2337e-07 7.64555e-08 -2.23844e-08
-1.29041e-07 7.42615e-08 -1.98506e-08
-1.46568e-07 6.11455e-08 2.47584e-08
-2.3779e-08 1.43065e-07 -1.49693e-09
-1.90694e-08 1.43525e-07 -2.51463e-09
-1.53201e-07 5.68633e-08 2.82875e-09
-1.49721e-07 5.89418e-08 2.0922e-09
-1.51597e-07 5.81769e-08 5.94392e-09
-1.5151e-07 5.94394e-08 4.25869e-09
-1.05009e-08 3.44516e-08 4.07723e-09
-2.63477e-08 1.2257e-07 9.83083e-09
1.02213e-07 8.60544e-08 -1.23872e-08
1.03664e-07 8.53034e-08 -1.38045e-08
1.37346e-07 1.04431e-07 1.27523e-09
1.33761e-07 1.05914e-07 -6.69339e-10
-1.0134e-07 8.38179e-08 -2.99872e-08
-3.85427e-08 2.74511e-08 -5.32484e-10
-1.60394e-08 1.23316e-07 -1.05061e-08
-4.07698e-09 1.25822e-07 -1.02758e-08
1.50646e-07 8.87321e-08 -4.83627e-09
1.74968e-07 6.61738e-08 2.70964e-08
-5.08579e-08 9.6667e-08 -1.99306e-08
-5.03751e-08 9.89758e-08 -2.1348e-08
1.84523e-07 6.16495e-08 2.63424e-08
1.75675e-07 6.54817e-08 2.89585e-08
-1.20878e-07 7.71332e-08 1.73109e-08
-1.1958e-07 8.02081e-08 1.82284e-08
-1.21061e-07 7.7963e-08 1.92356e-08
-3.04548e-08 1.11822e-07 1.17388e-08
-4.50659e-08 1.10587e-07 1.3396e-08
-4.00567e-08 1.1006e-07 1.13835e-08
-1.07109e-07 8.53216e-08 1.93174e-08
-1.06845e-07 8.71491e-08 1.80568e-08
-1.07537e-07 8.62904e-08 1.76516e-08
-3.02348e-08 -7.60469e-08 1.9475e-09
-2.80759e-08 -7.71442e-08 6.62757e-10
-8.14662e-08 1.14599e-07 -9.53276e-09
1.68954e-07 7.88313e-08 -4.55321e-09
-7.46324e-08 1.19648e-07 -1.09128e-08
1.56866e-07 7.95476e-08 -7.3981e-09
1.54616e-07 8.19507e-08 -7.89156e-09
7.45171e-08 1.00373e-07 5.34523e-09
7.61966e-08 9.98602e-08 7.07531e-09
3.62899e-08 1.18199e-07 -1.36298e-09
4.283e-08 1.1419e-07 -7.95733e-10
1.7982e-07 7.22232e-08 8.63715e-09
1.82995e-07 6.99178e-08 6.64223e-09
1.71925e-07 7.93037e-08 -3.3316e-09
1.77804e-07 7.70363e-08 -2.07174e-09
1.99578e-07 6.49257e-08 -3.76399e-09
1.73585e-07 7.76347e-08 -3.43333e-09
6.24989e-08 1.18944e-07 8.69219e-10
6.12799e-08 1.18968e-07 4.9884e-10
7.00047e-08 1.19517e-07 1.72089e-09
5.44599e-08 -6.4277e-08 1.47346e-08
5.4483e-08 -6.3702e-08 1.33487e-08
1.4817e-07 7.18129e-08 -5.3562e-08
-1.10593e-07 8.10579e-08 2.19776e-08
4.82555e-08 -6.54851e-08 1.40009e-08
-8.29756e-08 9.00628e-08 -2.63013e-08
1.59021e-07 8.74083e-08 -1.72989e-09
1.54588e-07 8.86798e-08 -3.68734e-09
-8.3039e-08 9.28337e-08 -2.72311e-08
-8.53864e-08 8.90246e-08 -2.70157e-08
1.73002e-07 7.98867e-08 3.84171e-09
1.74926e-07 7.79519e-08 3.75828e-09
1.40526e-07 9.91059e-08 3.80768e-09
1.7823e-07 7.77504e-08 3.47987e-09
-1.74682e-07 4.40107e-08 2.33127e-08
-1.75738e-07 4.16796e-08 2.15385e-08
1.56637e-07 9.09423e-08 2.00367e-09
1.55373e-07 9.07004e-08 2.39832e-09
1.53834e-07 9.10856e-08 2.02286e-09
2.14259e-08 1.18242e-07 -4.33126e-09
1.6664e-08 1.14613e-07 -6.36776e-09
3.02273e-08 1.14991e-07 -3.41574e-09
9.33548e-08 1.01619e-07 -6.73646e-09
8.32636e-08 1.02446e-07 -6.84471e-09
1.51542e-07 8.2707e-08 1.10296e-08
1.50357e-07 8.24957e-08 9.72049e-09
2.18409e-07 5.04962e-08 1.32674e-08
2.19027e-07 5.03668e-08 1.29306e-08
-7.54461e-08 9.25198e-08 -2.62803e-08
-8.2178e-08 9.31616e-08 -2.8294e-08
-8.20266e-08 9.03357e-08 -2.80436e-08
1.62642e-07 7.23922e-08 -2.85701e-08
3.2528e-07 -2.17197e-08 -2.9525e-08
3.61947e-07 -2.76022e-08 -7.89765e-08
-3.44975e-08 4.58996e-08 -2.16815e-09
5.6564e-08 1.03431e-07 4.28237e-09
5.58156e-08 1.01332e-07 3.06319e-09
-9.26132e-08 8.49917e-08 -2.97915e-08
-8.79276e-08 8.9242e-08 2.34625e-08
2.14726e-07 -2.71684e-08 -1.72212e-07
-1.53533e-07 5.35976e-08 -3.13603e-08
1.31686e-07 8.62575e-08 -9.25888e-09
1.24522e-07 8.7782e-08 -1.0367e-08
-1.54458e-07 5.83741e-08 2.31769e-08
-1.56841e-07 5.75474e-08 2.31685e-08
-1.2934e-07 1.35288e-08 -1.00677e-08
-1.28706e-07 1.25088e-08 -9.81821e-09
-1.57332e-07 5.28871e-08 -3.24061e-08
-3.20896e-08 1.34121e-07 -1.0866e-08
-7.51306e-08 1.06292e-07 -1.96575e-08
-8.35472e-08 1.01869e-07 -1.85259e-08
-2.79471e-08 1.3661e-07 -8.3855e-09
2.02998e-08 1.23073e-07 -5.63225e-09
1.36202e-07 1.01244e-07 4.97652e-09
4.15611e-08 1.06177e-07 -3.64844e-09
5.07216e-08 1.06744e-07 -4.26695e-09
-6.2368e-08 1.03107e-07 1.61734e-08
2.0797e-08 1.22912e-07 -6.34483e-09
8.99627e-08 9.29271e-08 -2.66366e-08
8.96884e-08 9.45977e-08 -2.92331e-08
2.64607e-08 1.20812e-07 -4.36724e-09
-7.55523e-08 1.06465e-07 1.50527e-08
-2.9978e-08 6.44559e-08 -3.01852e-09
2.23892e-07 4.88613e-08 -9.6962e-09
2.25959e-07 4.74047e-08 -8.45641e-09
-1.17459e-07 7.72915e-08 -3.40021e-08
9.74954e-08 9.85236e-08 -7.23203e-09
-1.15781e-07 7.81935e-08 -3.38718e-08
-1.15872e-07 8.03547e-08 -3.43282e-08
6.91236e-08 1.15065e-07 2.11519e-09
-1.45212e-07 1.47393e-08 -1.20224e-08
1.11333e-07 1.00982e-07 7.61014e-09
1.1929e-07 9.98265e-08 7.16048e-09
3.75263e-07 -4.38836e-09 4.51077e-08
4.02244e-07 -8.69944e-09 4.85277e-08
-1.36128e-07 7.26499e-08 -4.91606e-09
-1.34275e-07 7.27418e-08 -6.1573e-09
1.65164e-07 7.20794e-08 9.12197e-09
3.07644e-07 1.39472e-08 -3.32967e-08
3.05318e-07 1.61481e-08 -3.44388e-08
1.66396e-07 7.24781e-08 1.10165e-08
3.88153e-07 -6.40683e-09 4.67987e-08
-1.51083e-07 6.00155e-08 1.64921e-08
-1.69738e-07 -1.87277e-08 -4.47103e-09
-1.6783e-07 -1.99116e-08 -5.40303e-09
-7.84667e-08 9.30849e-08 2.19529e-08
-7.55621e-08 9.35676e-08 2.03816e-08
1.55514e-07 8.4502e-08 7.38143e-09
1.5386e-07 8.61903e-08 5.84182e-09
-1.50683e-07 5.88941e-08 1.76834e-08
-1.46729e-07 6.14747e-08 1.86439e-08
-6.96253e-08 9.3004e-08 -2.36915e-08
3.50257e-08 -5.92604e-08 1.64047e-08
2.89368e-07 2.07235e-08 7.17783e-09
2.91108e-07 2.01223e-08 8.32569e-09
-5.1995e-09 -1.12885e-08 2.34392e-09
-6.92679e-08 9.2541e-08 -2.50937e-08
-1.00415e-07 8.7722e-08 -3.28657e-08
-1.01203e-07 8.65627e-08 -3.21214e-08
-1.0151e-07 8.45341e-08 -3.29136e-08
-6.94744e-08 -5.51646e-08 -5.36546e-09
-7.54264e-08 -5.24659e-08 -4.86795e-09
-2.04321e-08 8.34862e-09 -7.20125e-11
-7.58342e-08 -5.29788e-08 -6.02647e-09
-8.75945e-08 9.10274e-08 2.21116e-08
-5.20975e-08 -6.03163e-08 -1.54515e-09
-5.26324e-08 -6.02979e-08 -2.52246e-09
-8.82404e-08 8.92749e-08 2.20304e-08
3.49004e-08 1.07849e-07 -1.30491e-09
-8.84501e-09 1.3848e-07 -7.4549e-09
4.23103e-09 1.401e-07 -7.0896e-09
2.65334e-08 1.05659e-07 -2.76787e-09
-8.94229e-08 8.69312e-08 2.50702e-08
-8.34889e-08 -5.68235e-08 -5.14223e-09
-8.4135e-08 -5.75511e-08 -6.45219e-09
-8.67183e-08 8.82703e-08 2.43773e-08
-8.65125e-08 9.06606e-08 2.48873e-08
9.29446e-08 -5.40752e-08 7.95716e-09
9.23177e-08 -5.45731e-08 6.55764e-09
-4.83666e-08 -7.48873e-08 -3.76213e-10
-5.05259e-08 -7.63247e-08 -1.75037e-09
2.08766e-07 5.46124e-08 -3.47416e-08
2.07983e-07 5.26199e-08 -3.0803e-08
-6.84361e-08 1.05496e-07 1.56978e-08
-5.63228e-08 -7.43065e-08 -1.17661e-09
-1.48593e-07 3.4657e-08 -2.1027e-08
-1.50017e-07 3.49874e-08 -2.18407e-08
1.89139e-07 -3.08301e-08 -1.72176e-08
-4.83658e-08 -3.92075e-09 1.64817e-09
-4.50722e-08 -3.3311e-09 -1.84286e-09
-4.3845e-08 -5.59145e-09 -1.86957e-09
1.84749e-07 -3.13419e-08 -1.74796e-08
1.8377e-07 -3.05451e-08 -1.64769e-08
-1.95632e-08 5.33821e-08 3.21914e-09
-1.77068e-08 5.72945e-08 4.21627e-09
8.5763e-08 1.0357e-07 6.19371e-09
1.91423e-07 6.10193e-08 1.75123e-08
1.88142e-07 6.0292e-08 1.5786e-08
1.25124e-07 -2.89786e-08 -1.31202e-08
1.21297e-07 -2.67831e-08 -1.10684e-08
2.18843e-07 5.51166e-08 -3.05423e-09
2.21355e-07 5.39733e-08 -1.09743e-09
-4.36186e-08 1.24214e-07 8.73127e-09
-4.73822e-08 1.24343e-07 9.48955e-09
-4.42795e-08 1.26969e-07 7.10896e-09
4.6391e-08 1.19479e-07 -2.43944e-09
4.03264e-08 1.22447e-07 -1.0285e-09
1.67038e-08 1.13582e-07 -5.2822e-09
1.58608e-08 1.12437e-07 -5.89638e-09
3.92123e-08 1.25536e-07 -2.91792e-09
3.10503e-08 1.28584e-07 -3.75372e-09
4.14228e-08 1.24756e-07 -2.01724e-09
-1.60066e-08 -6.74205e-08 4.39202e-09
-1.75456e-08 -6.90432e-08 2.95562e-09
1.2348e-08 -6.36486e-08 1.00984e-08
1.21805e-08 -6.45337e-08 9.22656e-09
3.79105e-08 1.22539e-07 3.4077e-10
-4.28742e-08 1.20069e-07 1.18402e-08
-4.14621e-08 1.21268e-07 9.5369e-09
-2.92357e-08 1.08151e-07 1.19111e-08
-2.81761e-08 1.10748e-07 1.11753e-08
-6.99637e-08 -3.20265e-08 1.50667e-09
-3.85914e-08 1.19073e-07 1.21391e-08
1.392e-07 1.9766e-08 2.67585e-08
1.28391e-07 1.79181e-08 2.3397e-08
-7.1695e-08 1.03262e-07 1.66425e-08
7.06569e-08 1.37638e-07 -1.7202e-09
1.55679e-08 4.11081e-08 1.02911e-08
-3.2933e-08 1.18195e-07 1.03741e-08
-1.5601e-07 5.97728e-08 -3.35876e-08
-1.61798e-07 5.65093e-08 -3.24993e-08
2.60366e-07 3.40064e-08 -2.44543e-09
-1.56458e-07 5.85853e-08 -3.36851e-08
-1.26992e-08 1.40549e-07 -6.72277e-09
1.78096e-10 1.42617e-07 -6.55259e-09
-1.74071e-07 -1.53574e-08 3.04267e-10
-1.7571e-07 -1.43406e-08 -7.34131e-10
2.16567e-07 5.32563e-08 3.67771e-08
2.11079e-07 5.75688e-08 3.96332e-08
1.15566e-07 9.55981e-08 -8.83195e-09
-1.5334e-07 5.89003e-08 2.24954e-08
-1.53143e-07 5.72567e-08 2.16952e-08
-7.40643e-08 2.28729e-08 -5.80233e-09
-7.44466e-08 2.44413e-08 -5.82168e-09
-1.53436e-07 5.87882e-08 2.13691e-08
7.49586e-08 9.80366e-08 1.63876e-08
-3.06371e-09 6.03924e-08 -1.07677e-08
-3.67191e-09 6.03702e-08 -1.04494e-08
6.39436e-08 1.0095e-07 1.57714e-08
1.32155e-07 -3.67557e-08 -1.21416e-08
1.36377e-07 -3.62652e-08 -1.05327e-08
3.21409e-07 4.61452e-09 1.93319e-09
3.24289e-07 3.53133e-09 2.06202e-09
1.46911e-09 1.07934e-07 -2.27064e-09
2.17991e-07 5.52808e-08 5.49074e-09
1.13643e-07 8.88487e-08 -2.6874e-08
1.07764e-07 9.40919e-08 -2.717e-08
1.30113e-08 1.07012e-07 2.28329e-09
1.25823e-08 1.05614e-07 -2.35239e-10
1.80435e-08 1.15872e-07 -5.18515e-09
3.10604e-08 1.33178e-07 -4.4082e-09
-1.60003e-07 2.67799e-08 1.52055e-08
-1.58454e-07 2.66701e-08 1.47974e-08
1.45853e-07 8.91203e-08 -6.37677e-09
1.48502e-07 9.44108e-08 2.9186e-09
1.50574e-07 9.22621e-08 4.16079e-09
1.51611e-07 9.19642e-08 4.28687e-09
-2.08018e-08 8.71012e-08 6.64575e-10
1.09943e-07 9.83425e-08 5.83625e-09
1.8013e-07 7.58797e-08 2.83487e-09
1.8262e-07 7.5534e-08 2.5294e-09
9.98206e-08 1.00808e-07 7.58873e-09
-2.46722e-08 -8.37546e-08 1.0334e-09
-1.9341e-08 -8.15506e-08 -3.7992e-10
9.74121e-08 1.0228e-07 5.78473e-09
2.05387e-07 5.54786e-08 -1.39251e-08
-2.13465e-09 2.00842e-08 3.37453e-09
-2.38906e-09 1.73119e-08 2.78855e-09
2.04165e-07 5.47913e-08 -1.13974e-08
2.11981e-07 5.29828e-08 -1.28139e-08
2.14976e-07 5.09189e-08 -1.0371e-08
2.0182e-07 5.68552e-08 -1.29087e-08
-8.3859e-09 1.51174e-08 -2.52634e-09
-8.80757e-09 1.79733e-08 -3.06759e-09
7.32311e-08 1.3696e-07 -2.14689e-09
-3.22013e-09 -6.76008e-08 -4.21961e-09
3.74912e-09 -6.841e-08 -4.32856e-09
6.41457e-08 1.38825e-07 -3.35726e-09
-5.82432e-08 1.29363e-07 -7.65107e-09
5.66663e-08 1.41049e-07 -2.41271e-09