# vtk DataFile Version 2.0
S, Created by Mohamad Ibrahim Cheikh
ASCII
DATASET UNSTRUCTURED_GRID
POINTS 23916 double
-136.238 69.7253 101.44
-139.263 67.6508 102.337
-300.802 -58.124 54.4784
-297.821 -57.3018 57.2821
-348.01 27.3578 42.9867
1.79582 5.10959 131.9
-308.31 64.5296 40.2781
-311.48 -53.0929 52.2205
-308.333 62.4765 43.3741
-341.065 -26.6162 49.7376
-337.849 -26.0274 52.6507
-343.615 -22.6337 49.5601
-342.004 -19.5141 52.1819
65.386 39.7845 -123.765
68.9971 42.003 -122.788
-332.26 -42.2833 46.0454
-334.127 -39.0095 47.2655
-19.4583 19.8165 130.326
-357.815 8.92495 -40.8581
-359.42 5.74264 -39.688
-339.003 22.2617 53.4637
-161.3 -102.623 60.8863
-161.265 -100.814 63.8481
-313.928 -66.961 -29.5742
-316.562 -66.6169 -26.7812
-153.884 73.5975 -95.437
-150.312 75.299 -94.8046
-339.285 25.4789 51.7818
-282.063 33.8378 80.8609
-247.122 84.998 52.1787
-243.109 86.5294 51.9687
-160.76 64.8957 100.242
-158.428 67.1171 99.2288
-284.856 30.8678 80.8508
-334.746 1.41038 60.8527
-332.176 4.30039 62.4216
-241.883 100.538 12.3712
-247.111 -11.8461 99.0334
-250.11 -13.9147 97.8352
-215.627 -92.5461 -56.2745
-219.41 -92.8473 -53.9398
-214.985 -85.5108 66.7334
-218.18 -86.0864 64.6925
-207.412 -92.0792 60.6505
-216.928 10.092 107.521
-215.016 13.7395 107.587
-210.815 -92.4544 58.609
-183.357 110.313 33.7472
-184.233 109.175 36.7328
-283.67 2.65071 86.9781
-281.799 6.15147 87.5436
321.917 18.2161 -66.3672
323.583 14.7067 -66.2461
-260.384 27.478 91.4779
-262.715 24.4102 91.5321
11.7846 7.70173 -131.711
-316.891 -52.8301 -48.3581
-314.677 -52.2622 -50.6889
-325.366 -52.926 -40.7675
192.822 73.7868 86.1831
-322.601 -53.0545 -43.2166
35.5259 95.6413 -90.1233
-234.805 102.268 -14.6724
-238.617 101.128 -15.0427
-323.414 -54.1231 41.0957
-325.615 -51.706 42.069
-27.0207 12.9217 -131.025
-126.776 120.295 31.3911
-129.916 119.415 33.1297
10.9993 14.218 131.176
7.34606 16.4735 130.943
-240.088 34.4126 95.8259
-243.033 32.0485 95.7368
-308.268 46.8876 59.9255
-243.315 34.3758 -94.8375
-15.2572 21.4782 130.131
-245.392 37.151 -93.1202
-243.468 -13.6753 99.8986
-243.399 -17.6262 99.2983
300.907 -15.2499 78.1408
299.79 -11.9372 79.235
-295.215 62.7294 53.0942
-299.05 61.8786 51.439
-108.253 118.273 44.7287
-106.05 117.336 47.7426
-238.726 76.7841 67.4603
-243.06 75.1771 67.3756
-311.356 43.7923 60.312
-348.928 23.4374 44.3695
-359.792 18.4154 -35.1601
-362.207 18.2969 -32.0488
-190.792 -82.7329 -78.2471
-191.842 -80.0427 -80.6927
8.09768 -8.67578 131.684
-336.393 38.3364 -45.826
-241.936 -61.8068 -80.2351
-244.126 -59.2603 -81.3368
-198.03 84.6516 73.8707
-194.407 84.3807 75.3441
-192.728 -75.2019 -84.9772
-158.761 95.4238 72.3356
-342.139 36.4419 -42.0047
-246.073 88.0773 47.4658
-248.888 86.2034 49.0815
-297.207 25.6645 -77.1413
60.8831 -8.13037 -130.016
-299.551 22.7633 -76.9418
-351.436 -28.6712 38.4825
-348.798 -31.1309 39.496
-320.163 64.3624 -27.0519
31.0051 18.4658 -130.251
-316.723 66.2516 -27.4458
-339.16 38.7612 -42.8772
-196.241 108.555 -30.4133
-192.566 109.572 -29.6331
-190.564 110.892 -26.0967
-194.323 110.539 -24.1224
-172.716 -116.825 -11.1216
-175.871 -115.517 -17.1148
-345.092 38.3667 37.0396
-296.407 -73.4387 -35.6979
-292.963 -74.9134 -36.1128
-175.677 -116.09 -12.9885
35.6219 21.4932 129.641
-27.1008 9.79252 131.294
-23.8019 11.4542 131.238
-249.732 -21.2665 96.6242
68.2015 -15.2853 128.922
-24.9245 1.39823 131.704
-251.578 -17.669 96.7626
-260.981 44.2381 84.4281
-294.447 -67.6772 47.2141
-256.815 46.2172 84.9305
-23.2042 -1.82932 131.737
-255.083 48.9668 84.0238
-27.0317 6.56601 131.497
-254.9 86.7889 -44.0099
-254.864 88.5148 -40.4548
-191.675 61.8301 95.4098
-194.978 61.1264 95.0431
-247.292 89.4416 44.0131
-263.363 -81.0949 48.5368
-297.298 -63.0365 51.2761
-297.63 -65.4966 47.8422
-283.23 20.483 -84.7535
-285.147 17.3141 -84.6731
302.421 53.9723 -57.5649
304.794 51.8058 -58.0213
305.267 49.104 -60.0313
-39.6288 -18.8536 -129.909
-265.375 93.1865 -10.8757
-207.825 93.8492 57.6922
-210.416 92.1404 59.275
-73.8423 121.61 -44.3552
-358.371 28.8974 -29.4146
-267.404 92.8005 -7.59446
-375.027 9.91695 10.3152
-376.08 7.39545 7.29457
-264.988 93.8028 -5.30705
-349.608 48.1673 -11.8237
-347.012 50.6521 -10.7523
179.488 93.8034 68.4156
178.224 96.1974 65.4308
173.92 96.9356 65.7586
-360.732 -5.30659 -38.2653
-358.032 -6.27845 -41.1164
-81.6323 119.501 -48.2457
-325.269 63.4691 21.0362
-327.643 61.7316 21.6858
-329.161 59.6626 24.4831
-327.99 59.0865 27.6045
114.01 -119.977 -37.9215
-333.1 -52.6211 -32.7217
-336.335 -50.8182 -31.496
111.426 -119.363 -40.699
107.604 -119.824 -40.6045
-189.698 89.084 71.2907
-190.105 86.7859 73.943
-354.128 -33.2635 31.0481
-351.412 -36.4627 31.233
-78.2619 120.662 -45.9871
-317.663 -61.004 36.7161
-262.067 -26.9676 -91.0403
-314.125 -62.0112 38.7023
-311.412 -64.6993 36.946
-327.226 0.228555 -65.6848
-329.397 -2.1502 -64.3068
-182.178 -103.109 -52.2423
-328.893 -6.13209 -64.366
-240.478 -92.6643 41.919
-281.428 65.9466 58.1234
-284.345 63.7058 58.8799
-329.043 -31.6624 -56.2676
-329.646 -34.5824 -54.0736
-327.167 -40.4506 -51.7975
-324.791 -43.619 -51.0517
-308.238 -32.3965 -68.864
-312.313 -30.9667 -67.2553
-301.694 46.551 64.1363
-303.331 42.5969 65.9146
-198.168 108.084 30.5605
-201.738 107.201 30.8084
-279.605 14.2741 -87.4574
-278.577 10.6273 -88.3733
-279.862 27.0538 -84.2793
-277.829 29.9118 -84.1367
-181.554 86.8855 -76.4158
-180.807 84.4324 -79.327
-291.055 -53.0778 -65.0793
-287.164 -54.3211 -66.1604
-187.339 -104.296 -47.428
-167.636 -116.905 17.7965
-257.069 -57.8659 -77.3612
-292.613 83.0477 -6.65255
-258.249 67.0624 69.0033
-294.26 81.934 -10.4748
-186.244 -103.031 -50.6162
-182.664 -113.67 20.4473
58.964 5.36744 130.267
55.9387 7.43353 130.329
-179.756 -114.779 17.1404
-73.7843 -116.443 -56.555
-227.334 64.8295 83.0291
-225.891 68.0872 80.8758
-238.155 -81.0583 -62.5267
-235.658 -79.7579 -65.2959
-342.465 31.9893 45.1856
-230.998 63.0294 83.1768
62.3533 75.9069 -105.765
-16.2437 -14.2694 131.103
-219.261 70.0411 -81.4391
-217.77 67.9246 -83.6907
-357.997 19.0202 37.0313
32.1709 -16.0125 -130.541
58.9703 78.0785 -104.413
-231.916 -43.6555 94.5159
-232.701 -46.4807 92.9191
216.997 -104.556 26.965
212.925 -105.652 26.6641
211.419 -106.779 23.4511
-66.8496 125.035 -35.257
-266.261 89.4381 -27.2968
-268.576 87.7297 -29.9364
-67.5322 123.783 -39.2866
-317.548 -0.0788937 -71.2634
338.266 23.1154 53.6726
-41.5908 11.1334 -130.722
-45.5264 12.1486 -130.471
-289.82 76.1096 36.7109
334.532 18.6205 58.1024
337.516 20.1402 55.4204
-278.38 -14.0975 87.9628
-275.383 -16.6061 88.6772
-210.967 -0.0454098 109.43
-212.24 -3.34467 109.077
-85.8248 109.374 67.525
-88.6774 110.227 65.6609
-377.181 -1.37295 -2.12647
-304.151 -69.6876 -35.2402
-302.508 -72.1541 -31.8447
-233.988 -89.1959 52.5828
-376.726 -6.68638 1.91721
-376.916 -5.20327 -1.94013
-273.77 -90.1396 11.0761
-282.02 -87.2934 8.14494
-276.521 -88.8386 13.0465
-280.285 -87.5879 11.5876
9.66434 16.1154 -130.969
-352.395 -12.0985 45.5405
-248.606 49.248 86.2082
-244.886 51.1096 86.4277
-341.436 55.8865 -5.28402
-344.085 54.0274 -3.15382
-253.405 -63.4068 -74.4434
-0.481428 2.71967 131.972
-352.153 -8.73921 -46.5277
-352.636 -4.36557 -46.695
-313.216 67.5026 29.2655
-145.885 84.1458 -87.9652
-252.251 -34.4939 -91.8905
-248.759 -34.8255 -92.925
-140.224 88.5332 -84.7264
-142.336 86.0603 -86.8172
-305.285 -66.7411 39.4872
-308.186 -64.6726 40.1647
-302.02 -67.0606 41.9438
-330.981 -16.6885 61.1019
-332.855 -22.8409 57.7746
-330.767 -20.2072 60.1741
-313.111 -57.7545 45.6676
-316.211 -56.0975 45.1149
-318.505 -56.5738 42.4659
336.379 -18.3539 -56.8686
339.074 -16.1152 -55.5725
-363.143 -32.0982 -15.7629
-291.773 78.9812 27.6282
-365.213 -28.5671 -16.6759
-287.432 74.1427 42.5674
-290.998 72.1514 43.0212
-291.192 31.3327 -77.8527
-288.714 33.2314 -78.1944
-333.758 12.651 -60.215
-331.429 15.5708 -61.0998
-262.093 85.6491 -40.9653
-258.825 87.5508 -39.4615
-294.312 79.8387 21.0934
-289.155 83.0215 17.1745
-251.669 96.6908 17.9021
-291.081 81.4266 20.5035
-342.72 23.2347 -50.038
-345.919 22.8345 -47.4614
-346.067 26.304 -45.4921
299.277 45.7005 66.1045
302.764 44.7861 64.7727
-39.8914 85.4303 99.6536
-289.295 -62.983 56.6637
303.7 41.1491 66.6222
-285.573 -51.6634 -69.0686
-313.939 71.0913 17.4229
-316.203 69.1335 20.0855
-282.724 -51.0349 -70.9451
-279.945 -53.533 -70.4519
-295.729 80.087 -17.4022
-291.944 81.8682 -16.9313
-333.836 59.3898 -15.8864
-290.758 83.0516 -13.2729
-142.888 -103.153 65.4509
-139.941 -104.439 64.1785
-321.174 68.7392 -8.35748
-320.169 68.3486 -14.2252
-322.149 67.6917 -11.6608
-333.839 5.95999 -61.1865
-331.76 3.18965 -62.7581
-331.879 9.615 -62.0208
-319.063 40.4592 57.6494
-319.802 36.5547 59.7195
-279.768 70.6667 -53.3626
-283.389 70.1153 -51.7255
-176.107 106.785 -47.1577
-173.3 106.177 -49.7335
-168.445 -46.8791 -108.409
-169.707 -49.9993 -106.761
-173.595 -51.2774 -105.381
-157.424 79.5849 89.7559
64.3258 129.418 -12.9724
60.4399 129.601 -13.4311
-23.9769 4.35879 131.661
-285.181 23.2595 -83.2221
-288.343 22.6304 -82.0536
-253.324 -60.1165 -77.1575
-285.564 -51.859 68.9264
67.5862 129.444 -10.4392
-123.029 -91.7664 -84.5566
-290.92 61.2942 57.4906
-292.262 58.5249 59.508
-221.277 -92.3084 53.9309
-222.288 -93.8045 50.746
8.42483 -71.5042 -110.916
11.9835 -70.9623 -111.224
-124.336 -94.3156 -81.4608
-369.677 -11.8246 -23.5101
-343.421 -36.4645 -40.6832
-341.611 -40.5644 -38.6155
-371.524 -9.65892 -20.7763
-347.938 5.53274 -50.7131
-334.949 57.0222 -20.9011
-306.89 17.9951 74.6291
-306.831 21.5304 73.7169
-329.524 -32.3746 55.5126
-344.579 5.20421 -53.4806
-131.503 48.9131 113.641
-128.019 50.6635 113.361
-342.313 8.00847 -54.8969
-342.9 -35.0245 42.4484
-47.5919 3.88136 130.888
-179.989 109.664 37.8343
-176.488 110.749 36.6775
-208.123 -73.8658 -81.6378
-316.05 43.2621 57.6462
-214.503 -72.9555 -80.4256
-211.048 -71.7621 -82.5893
-339.849 26.7304 -50.686
-1.0137 -83.3512 -102.355
-323.2 48.0405 -48.2413
-322.282 51.2124 -45.6618
38.372 129.146 -23.7697
44.3522 129.706 -18.9619
-316.015 -72.0208 -3.23388
[...]
POINT_DATA 23916
VECTORS F double
1.31737e-07 7.18917e-08 -2.77539e-08
1.28698e-07 7.44992e-08 -2.78063e-08
-9.17227e-08 7.7157e-08 2.03159e-08
-9.11967e-08 7.8895e-08 2.08719e-08
6.56505e-08 1.07556e-07 -3.3802e-09
-3.28424e-08 2.7752e-08 -1.0203e-09
1.30832e-07 8.09369e-08 -7.06032e-09
-8.68856e-08 8.08517e-08 1.87533e-08
1.25691e-07 8.04669e-08 -6.51411e-09
-4.78031e-08 1.00156e-07 1.34641e-08
-4.66254e-08 1.0108e-07 1.33387e-08
-4.181e-08 1.04877e-07 1.24063e-08
-3.43862e-08 1.03424e-07 1.10846e-08
2.68451e-08 -9.25187e-09 -1.23769e-09
2.95841e-08 -1.24426e-08 -2.22108e-09
-7.59951e-08 8.98044e-08 1.53294e-08
-7.05508e-08 9.35158e-08 1.6121e-08
-7.7312e-09 4.99603e-08 -7.7379e-09
2.82772e-08 1.17089e-07 -4.74211e-09
2.05832e-08 1.19667e-07 -5.5066e-09
5.2856e-08 1.04823e-07 -2.61437e-09
-1.56805e-07 4.36255e-08 2.2672e-08
-1.5336e-07 4.44683e-08 2.27905e-08
-1.11095e-07 7.16116e-08 -1.77631e-08
-1.10717e-07 7.07154e-08 -1.56752e-08
1.43826e-07 6.64811e-08 2.28753e-08
1.4484e-07 6.59643e-08 2.42773e-08
6.04094e-08 1.05679e-07 -3.53873e-09
7.09978e-08 8.75212e-08 -6.30403e-09
1.611e-07 6.20538e-08 -7.67206e-09
1.62119e-07 6.11584e-08 -8.97982e-09
1.21973e-07 7.71033e-08 -2.59672e-08
1.25251e-07 7.50691e-08 -2.62929e-08
6.5889e-08 9.08678e-08 -6.27093e-09
9.52621e-09 1.07631e-07 3.92125e-09
1.48577e-08 1.04896e-07 2.45354e-09
1.90378e-07 5.63024e-08 -1.83603e-09
-1.0128e-08 9.41723e-08 8.1706e-09
-1.08463e-08 9.27456e-08 9.79609e-09
-1.35075e-07 5.79858e-08 -3.19944e-08
-1.34594e-07 5.61815e-08 -2.96773e-08
-1.29133e-07 6.09808e-08 2.72074e-08
-1.28698e-07 5.92951e-08 2.57637e-08
-1.40138e-07 5.49677e-08 2.47776e-08
2.67514e-08 9.63127e-08 -2.43208e-09
3.64521e-08 9.28351e-08 -2.93644e-09
-1.40088e-07 5.37425e-08 2.3086e-08
2.09149e-07 4.43573e-08 -5.87075e-09
2.05121e-07 4.4462e-08 -6.19345e-09
1.38339e-08 9.65703e-08 2.5808e-09
2.10639e-08 9.38646e-08 1.70565e-09
1.89552e-08 -6.69719e-08 -7.12554e-09
1.44537e-08 -6.94859e-08 -6.78247e-09
5.83234e-08 8.72344e-08 -5.87833e-09
5.18598e-08 9.11282e-08 -6.07897e-09
-2.10404e-08 3.20745e-08 1.64505e-09
-8.43664e-08 8.16331e-08 -2.14961e-08
-8.41018e-08 8.32476e-08 -2.19099e-08
-8.90715e-08 8.24716e-08 -2.00344e-08
7.56121e-08 -4.93243e-08 2.1518e-08
-8.90729e-08 8.35701e-08 -2.11892e-08
1.48998e-07 3.09413e-08 4.00265e-08
1.92565e-07 5.46721e-08 3.77986e-09
1.91288e-07 5.58825e-08 4.18778e-09
-9.35373e-08 8.05482e-08 1.5959e-08
-9.07517e-08 8.3728e-08 1.69107e-08
-6.45654e-09 6.77322e-08 6.84276e-09
2.36088e-07 3.20708e-08 -6.16721e-09
2.32919e-07 3.34093e-08 -8.59819e-09
-1.93609e-08 2.31192e-08 -2.30711e-09
-1.68855e-08 2.78684e-08 -3.39005e-09
6.84325e-08 8.47034e-08 -9.42702e-09
6.59323e-08 8.6135e-08 -8.34267e-09
9.70039e-08 8.66802e-08 -6.72767e-09
7.5398e-08 8.59731e-08 7.47961e-09
-6.81122e-09 4.90186e-08 -8.1883e-09
7.78116e-08 8.69615e-08 9.58947e-09
-9.86253e-09 9.41014e-08 9.93891e-09
-1.81714e-08 9.30259e-08 1.10596e-08
-2.81129e-08 -6.55402e-08 4.63346e-10
-2.38425e-08 -6.40864e-08 1.38947e-09
1.24986e-07 7.93807e-08 -8.70322e-09
1.23787e-07 7.91836e-08 -7.14615e-09
2.35839e-07 3.17531e-08 -1.40818e-08
2.34407e-07 3.11851e-08 -1.28957e-08
1.43938e-07 6.40469e-08 -1.05374e-08
1.42764e-07 6.46749e-08 -9.10895e-09
9.2019e-08 9.02001e-08 -7.33435e-09
5.57199e-08 1.08739e-07 -3.79123e-09
5.03123e-08 1.19495e-07 -4.46696e-10
4.95025e-08 1.19656e-07 -1.83327e-10
-1.21841e-07 6.63673e-08 -3.37993e-08
-1.1599e-07 6.89627e-08 -3.46459e-08
-5.15687e-08 2.00681e-08 1.7104e-09
8.88748e-08 1.00712e-07 4.37811e-09
-8.39197e-08 7.80648e-08 -2.91544e-08
-8.13612e-08 8.09636e-08 -2.90911e-08
1.58735e-07 6.04499e-08 -1.71739e-08
1.60143e-07 6.18289e-08 -1.8655e-08
-1.08822e-07 7.31587e-08 -3.45261e-08
1.83281e-07 5.48197e-08 -2.30682e-08
8.60948e-08 1.02914e-07 3.42832e-09
1.66584e-07 6.06163e-08 -6.74708e-09
1.63013e-07 6.27347e-08 -8.97882e-09
5.80181e-08 9.31308e-08 3.6172e-09
-4.06322e-08 -7.63041e-09 -1.85232e-09
5.31699e-08 9.62374e-08 3.12851e-09
-5.84951e-08 1.04336e-07 1.23332e-08
-6.0993e-08 1.00884e-07 1.35706e-08
1.35709e-07 8.45436e-08 4.50804e-09
-6.94547e-09 1.7638e-08 2.29815e-09
1.3756e-07 8.28278e-08 5.58793e-09
8.90288e-08 1.01265e-07 5.3255e-09
2.04575e-07 4.74607e-08 7.79277e-09
2.05652e-07 4.63213e-08 7.66195e-09
2.09975e-07 4.56335e-08 6.18742e-09
2.08482e-07 4.59705e-08 5.03964e-09
-1.73004e-07 3.20899e-08 -8.14825e-09
-1.69884e-07 3.33778e-08 -1.1556e-08
8.74455e-08 1.02645e-07 -6.57686e-09
-1.1538e-07 6.73826e-08 -2.13303e-08
-1.1556e-07 6.60434e-08 -2.22274e-08
-1.71903e-07 3.30584e-08 -1.08106e-08
-9.57613e-09 3.91118e-09 -3.26262e-10
-2.1421e-08 5.14483e-08 -4.37857e-09
-2.05435e-08 5.07065e-08 -4.88169e-09
-2.3278e-08 9.1007e-08 1.26643e-08
-5.28941e-08 -1.83928e-08 1.24512e-09
-3.44401e-08 4.75609e-08 -1.30288e-09
-1.83969e-08 9.4368e-08 1.13758e-08
8.68467e-08 7.94988e-08 -8.78782e-09
-1.06108e-07 7.01885e-08 1.95922e-08
8.75813e-08 8.04537e-08 -1.13577e-08
-4.0127e-08 4.40247e-08 -2.53994e-10
9.42117e-08 7.75693e-08 -1.01886e-08
-2.76092e-08 5.09947e-08 -3.24118e-09
1.65582e-07 6.32163e-08 7.25013e-09
1.6983e-07 6.34338e-08 7.80141e-09
1.1847e-07 7.77535e-08 -2.12492e-08
1.17683e-07 7.68167e-08 -1.98465e-08
1.69608e-07 6.14156e-08 -8.13518e-09
-1.2368e-07 6.21691e-08 2.17092e-08
-9.95233e-08 7.36226e-08 1.98615e-08
-1.05182e-07 7.30005e-08 1.98266e-08
4.95044e-08 9.1785e-08 1.92807e-09
4.23533e-08 9.47416e-08 1.91058e-09
6.28364e-08 -5.65554e-08 -1.26097e-08
6.14879e-08 -5.84851e-08 -1.26744e-08
5.70036e-08 -5.93916e-08 -1.30918e-08
-5.005e-08 6.30926e-08 -7.28734e-09
1.78293e-07 6.24633e-08 2.57419e-09
1.75846e-07 5.34467e-08 -9.38907e-09
1.73059e-07 5.50364e-08 -1.03391e-08
2.47049e-07 2.35201e-08 1.41319e-08
7.45135e-08 1.14123e-07 9.69617e-10
1.77299e-07 6.27581e-08 2.56562e-09
2.80193e-08 1.31596e-07 -1.79289e-09
2.10489e-08 1.32249e-07 -1.21024e-09
1.79411e-07 6.21515e-08 1.77829e-09
1.13323e-07 1.01356e-07 2.66604e-09
1.17214e-07 9.8612e-08 1.40474e-09
1.08549e-07 -4.4322e-08 2.59038e-08
1.14461e-07 -4.2562e-08 2.44047e-08
1.1427e-07 -4.2857e-08 2.61744e-08
-6.99442e-09 1.18269e-07 -8.329e-09
-7.51156e-09 1.17331e-07 -9.9087e-09
2.40188e-07 2.71248e-08 1.74304e-08
1.34064e-07 8.52251e-08 -3.34364e-09
1.31641e-07 8.68782e-08 -3.80682e-09
1.26964e-07 8.76945e-08 -4.71821e-09
1.25916e-07 8.72382e-08 -3.56091e-09
-1.58303e-07 -1.84702e-08 1.67429e-10
-9.30671e-08 8.35556e-08 -1.83784e-08
-9.23533e-08 8.52451e-08 -1.67991e-08
-1.58578e-07 -1.81197e-08 -1.21602e-11
-1.59038e-07 -1.75244e-08 1.15084e-10
1.68422e-07 5.8991e-08 -1.88467e-08
1.62724e-07 5.93485e-08 -1.84365e-08
-7.09482e-08 1.02299e-07 1.05255e-08
-7.4734e-08 9.77935e-08 1.1222e-08
2.44987e-07 2.49154e-08 1.43295e-08
-1.03699e-07 7.50367e-08 1.48303e-08
-3.07718e-08 9.22647e-08 -1.64855e-08
-1.03731e-07 7.50044e-08 1.70996e-08
-1.06609e-07 7.17657e-08 1.56602e-08
1.17379e-08 1.03423e-07 -6.79937e-09
7.75976e-09 1.05217e-07 -8.38448e-09
-1.52742e-07 4.83953e-08 -3.03047e-08
-1.23551e-09 1.03486e-07 -9.08617e-09
-1.37797e-07 5.26633e-08 1.96331e-08
1.28537e-07 7.51966e-08 -9.12165e-09
1.25563e-07 7.76031e-08 -9.72529e-09
-5.03458e-08 9.71317e-08 -1.86119e-08
-5.76302e-08 9.6957e-08 -1.8995e-08
-6.72759e-08 9.2837e-08 -2.04751e-08
-7.12279e-08 8.87809e-08 -2.03756e-08
-4.45513e-08 9.41537e-08 -1.98797e-08
-4.45234e-08 9.46419e-08 -1.82636e-08
9.66763e-08 8.60509e-08 -6.78023e-09
8.69227e-08 8.82901e-08 -8.08377e-09
2.03209e-07 4.69486e-08 -4.71756e-09
2.02401e-07 4.76031e-08 -3.37707e-09
3.81455e-08 9.47297e-08 5.30258e-10
3.25126e-08 9.30002e-08 -1.36408e-09
6.24138e-08 9.13591e-08 3.95217e-09
6.80214e-08 8.88988e-08 4.1051e-09
1.63e-07 5.82379e-08 1.88039e-08
1.60662e-07 5.84672e-08 1.73971e-08
-7.84297e-08 8.3344e-08 -2.50305e-08
-7.81982e-08 8.2935e-08 -2.65393e-08
-1.53993e-07 4.66729e-08 -2.81653e-08
-1.73372e-07 3.11988e-08 5.00376e-09
-8.11825e-08 8.04827e-08 -2.7173e-08
1.64051e-07 7.09268e-08 1.98453e-09
1.26221e-07 7.24994e-08 -1.2625e-08
1.6163e-07 7.13442e-08 2.15509e-09
-1.52604e-07 4.75818e-08 -2.8108e-08
-1.68885e-07 3.43737e-08 6.377e-09
-2.77866e-08 -1.31977e-08 2.08364e-09
-2.65977e-08 -1.06802e-08 2.00684e-09
-1.71195e-07 3.33688e-08 3.64401e-09
-1.73972e-07 2.36176e-08 -2.0839e-08
1.22203e-07 6.91925e-08 -1.30615e-08
1.31078e-07 6.72065e-08 -1.17564e-08
-1.14122e-07 6.53655e-08 -3.15214e-08
-1.14034e-07 6.73724e-08 -3.19073e-08
7.33028e-08 1.04425e-07 -5.90972e-09
1.20602e-07 6.97842e-08 -1.18744e-08
8.84781e-08 -5.24676e-09 2.62064e-09
-5.75749e-08 3.57969e-08 3.02282e-09
1.34886e-07 6.8958e-08 1.48452e-08
1.31782e-07 6.79348e-08 1.31547e-08
4.90474e-08 1.15154e-07 -1.0937e-09
-5.30599e-08 1.15782e-08 -3.02115e-09
9.25328e-08 -4.35493e-10 6.07263e-09
-6.12909e-08 8.62505e-08 2.14253e-08
-6.75946e-08 8.64755e-08 2.25324e-08
-1.33485e-07 -3.46994e-08 -3.03023e-09
-1.34118e-07 -3.38883e-08 -3.15468e-09
-1.36125e-07 -3.35888e-08 -2.69021e-09
2.59288e-07 2.0531e-08 1.26209e-08
1.72109e-07 6.43636e-08 5.35146e-09
1.68485e-07 6.54606e-08 6.77155e-09
2.55049e-07 2.08977e-08 1.21681e-08
1.18698e-08 1.00688e-07 -6.58706e-09
2.81359e-08 -7.14261e-08 9.05171e-09
-2.05863e-09 7.80487e-08 6.7275e-09
-1.8856e-09 8.08454e-08 7.60834e-09
1.48563e-07 7.16217e-08 -4.89383e-09
2.1181e-08 -7.06525e-08 7.71196e-09
2.27993e-08 -7.07472e-08 8.71073e-09
-1.54697e-08 9.41486e-08 9.09497e-09
-1.63952e-08 9.2947e-08 1.11722e-08
1.15729e-08 9.39906e-08 2.7706e-09
3.8598e-09 9.57146e-08 3.85443e-09
2.22156e-07 4.12807e-08 -3.22947e-08
2.19209e-07 3.95029e-08 -3.00691e-08
-3.82372e-09 1.32474e-07 -2.50505e-09
-1.10198e-07 6.9685e-08 -2.13589e-08
-1.1542e-07 6.76446e-08 -1.90338e-08
-1.31444e-07 5.61417e-08 2.36221e-08
-1.89834e-08 1.30534e-07 -1.43314e-09
-1.46691e-08 1.30977e-07 -2.37645e-09
-1.37604e-07 5.14713e-08 2.4763e-09
-1.34407e-07 5.33304e-08 1.79204e-09
-1.36105e-07 5.26663e-08 5.44518e-09
-1.36066e-07 5.38192e-08 3.86208e-09
-8.65945e-09 3.63492e-08 4.39441e-09
-2.16182e-08 1.1158e-07 9.16243e-09
9.56986e-08 7.8201e-08 -1.08861e-08
9.70735e-08 7.75372e-08 -1.21775e-08
1.2645e-07 9.47031e-08 1.27559e-09
1.23199e-07 9.60333e-08 -4.87183e-10
-8.95143e-08 7.75256e-08 -2.87268e-08
-3.50106e-08 2.91134e-08 -6.15584e-10
-1.21635e-08 1.12638e-07 -9.88567e-09
-1.19742e-09 1.14783e-07 -9.62429e-09
1.38632e-07 8.04841e-08 -3.98922e-09
1.63646e-07 6.0706e-08 2.4843e-08
-4.32015e-08 8.94369e-08 -1.90534e-08
-4.27202e-08 9.16255e-08 -2.03372e-08
1.72393e-07 5.64526e-08 2.40579e-08
1.6439e-07 6.00156e-08 2.64953e-08
-1.08e-07 7.00978e-08 1.62527e-08
-1.06824e-07 7.2953e-08 1.71159e-08
-1.08116e-07 7.09069e-08 1.80558e-08
-2.53812e-08 1.01873e-07 1.09917e-08
-3.87146e-08 1.00775e-07 1.25334e-08
-3.41545e-08 1.00341e-07 1.07107e-08
-9.54303e-08 7.76662e-08 1.81161e-08
-9.52286e-08 7.93586e-08 1.69602e-08
-9.59134e-08 7.85393e-08 1.65579e-08
-2.91288e-08 -7.07418e-08 1.73683e-09
-2.71337e-08 -7.17455e-08 5.35884e-10
-7.23284e-08 1.04623e-07 -9.04019e-09
1.55368e-07 7.15675e-08 -3.7082e-09
-6.59683e-08 1.09264e-07 -1.02962e-08
1.44521e-07 7.21925e-08 -6.26725e-09
1.4246e-07 7.4348e-08 -6.7151e-09
7.02889e-08 9.17131e-08 4.72381e-09
7.18493e-08 9.12842e-08 6.31517e-09
3.55147e-08 1.07828e-07 -1.44605e-09
4.13602e-08 1.04211e-07 -9.10308e-10
1.65607e-07 6.58396e-08 7.93507e-09
1.68507e-07 6.37514e-08 6.12855e-09
1.58049e-07 7.20231e-08 -2.62216e-09
1.63422e-07 6.99907e-08 -1.47688e-09
1.83532e-07 5.90383e-08 -2.98759e-09
1.59589e-07 7.05281e-08 -2.7103e-09
5.91733e-08 1.08232e-07 6.36471e-10
5.80229e-08 1.08269e-07 3.14608e-10
6.5934e-08 1.08671e-07 1.42667e-09
5.05316e-08 -6.0486e-08 1.38075e-08
5.05593e-08 -5.99481e-08 1.25167e-08
1.44059e-07 6.88384e-08 -5.1953e-08
-9.84007e-08 7.39846e-08 2.07288e-08
4.47197e-08 -6.15801e-08 1.30767e-08
-7.28361e-08 8.28277e-08 -2.50853e-08
1.46167e-07 7.9325e-08 -1.22161e-09
1.42156e-07 8.04748e-08 -2.99912e-09
-7.28417e-08 8.5449e-08 -2.59291e-08
-7.50221e-08 8.19064e-08 -2.57398e-08
1.58976e-07 7.26555e-08 3.61012e-09
1.60758e-07 7.09207e-08 3.55411e-09
1.29353e-07 8.99623e-08 3.52214e-09
1.63771e-07 7.07265e-08 3.32198e-09
-1.58925e-07 4.14911e-08 2.29136e-08
-1.59977e-07 3.92497e-08 2.11645e-08
1.43939e-07 8.25768e-08 1.95895e-09
1.42817e-07 8.23787e-08 2.26808e-09
1.41401e-07 8.27228e-08 1.94358e-09
2.20424e-08 1.07912e-07 -4.21289e-09
1.76312e-08 1.04591e-07 -6.09539e-09
2.99343e-08 1.04959e-07 -3.3396e-09
8.69493e-08 9.22127e-08 -5.79942e-09
7.78132e-08 9.30428e-08 -5.93584e-09
1.39878e-07 7.53908e-08 1.00538e-08
1.38765e-07 7.51975e-08 8.85422e-09
2.01704e-07 4.609e-08 1.21468e-08
2.02298e-07 4.59622e-08 1.1822e-08
-6.56147e-08 8.78392e-08 -2.55021e-08
-7.18684e-08 8.84511e-08 -2.74375e-08
-7.16864e-08 8.5612e-08 -2.72002e-08
1.52113e-07 6.57674e-08 -2.5651e-08
2.87789e-07 -2.21774e-08 -4.87914e-08
3.34457e-07 -3.06118e-08 -1.13315e-07
-3.03615e-08 4.66804e-08 -2.22234e-09
5.41422e-08 9.46972e-08 3.75188e-09
5.34109e-08 9.28026e-08 2.61599e-09
-8.14472e-08 7.85796e-08 -2.84857e-08
-7.75462e-08 8.16382e-08 2.20892e-08
2.08817e-07 -3.01313e-08 -2.03751e-07
-1.39423e-07 5.15812e-08 -3.11432e-08
1.21738e-07 7.82815e-08 -8.03936e-09
1.15261e-07 7.96883e-08 -9.06598e-09
-1.38999e-07 5.37668e-08 2.22042e-08
-1.41179e-07 5.29457e-08 2.21568e-08
-1.19586e-07 1.52716e-08 -1.09572e-08
-1.18978e-07 1.42979e-08 -1.06917e-08
-1.4287e-07 5.08208e-08 -3.21424e-08
-2.67261e-08 1.22436e-07 -1.01297e-08
-6.62486e-08 9.70602e-08 -1.85291e-08
-7.40095e-08 9.30182e-08 -1.75549e-08
-2.29083e-08 1.2476e-07 -7.84824e-09
2.09429e-08 1.12253e-07 -5.34528e-09
1.25478e-07 9.19035e-08 4.54243e-09
4.02104e-08 9.66234e-08 -3.05413e-09
4.85434e-08 9.70439e-08 -3.60612e-09
-5.45614e-08 9.39616e-08 1.51454e-08
2.14448e-08 1.12073e-07 -6.01063e-09
8.75539e-08 8.64351e-08 -2.4799e-08
8.72849e-08 8.80665e-08 -2.72907e-08
2.65472e-08 1.10227e-07 -4.18672e-09
-6.67202e-08 9.70582e-08 1.40974e-08
-2.52014e-08 6.4011e-08 -3.02006e-09
2.06565e-07 4.43096e-08 -8.12191e-09
2.08505e-07 4.29983e-08 -6.99991e-09
-1.04445e-07 7.24256e-08 -3.29314e-08
9.06936e-08 8.94501e-08 -6.25341e-09
-1.02897e-07 7.31568e-08 -3.27624e-08
-1.02982e-07 7.52793e-08 -3.31917e-08
6.51047e-08 1.04763e-07 1.80471e-09
-1.34182e-07 1.61209e-08 -1.29652e-08
1.03201e-07 9.18866e-08 6.85441e-09
1.1037e-07 9.07742e-08 6.43614e-09
3.45291e-07 -6.48447e-09 3.30166e-08
3.60478e-07 -1.08456e-08 2.90592e-08
-1.22166e-07 6.5845e-08 -4.83628e-09
-1.20454e-07 6.59348e-08 -6.04026e-09
1.52488e-07 6.57785e-08 8.29089e-09
2.92067e-07 1.19963e-08 -2.99666e-08
2.89267e-07 1.43235e-08 -3.17961e-08
1.53654e-07 6.61356e-08 1.00182e-08
3.50664e-07 -8.20943e-09 3.31123e-08
-1.35678e-07 5.46444e-08 1.55886e-08
-1.57654e-07 -1.69604e-08 -3.72568e-09
-1.55917e-07 -1.80313e-08 -4.55498e-09
-6.89068e-08 8.51988e-08 2.06483e-08
-6.62456e-08 8.57256e-08 1.92324e-08
1.43224e-07 7.68963e-08 6.69283e-09
1.41697e-07 7.84166e-08 5.29617e-09
-1.35262e-07 5.36305e-08 1.67224e-08
-1.3163e-07 5.59914e-08 1.76055e-08
-6.04355e-08 8.59225e-08 -2.26342e-08
3.24349e-08 -5.55408e-08 1.52241e-08
2.68065e-07 1.86859e-08 6.71216e-09
2.69758e-07 1.81223e-08 7.73094e-09
-5.14837e-09 -8.4294e-09 1.80783e-09
-6.00609e-08 8.55278e-08 -2.39416e-08
-8.87209e-08 8.29291e-08 -3.18558e-08
-8.9508e-08 8.19726e-08 -3.1184e-08
-8.97445e-08 7.99298e-08 -3.19268e-08
-6.5024e-08 -5.10672e-08 -5.01475e-09
-7.05145e-08 -4.85298e-08 -4.53177e-09
-1.86462e-08 1.14281e-08 2.29666e-10
-7.09109e-08 -4.89865e-08 -5.59838e-09
-7.72835e-08 8.32544e-08 2.08188e-08
-4.88596e-08 -5.60527e-08 -1.55739e-09
-4.93684e-08 -5.60251e-08 -2.46079e-09
-7.79429e-08 8.16062e-08 2.07348e-08
3.43128e-08 9.86011e-08 -1.43391e-09
-5.42462e-09 1.26335e-07 -6.91276e-09
6.54503e-09 1.27618e-07 -6.56018e-09
2.66359e-08 9.6681e-08 -2.78508e-09
-7.87193e-08 8.00071e-08 2.37538e-08
-7.82049e-08 -5.28411e-08 -4.87783e-09
-7.88154e-08 -5.35007e-08 -6.09023e-09
-7.62936e-08 8.11257e-08 2.30523e-08
-7.60722e-08 8.34237e-08 2.35265e-08
8.65525e-08 -5.07809e-08 7.61571e-09
8.59699e-08 -5.12465e-08 6.30294e-09
-4.57447e-08 -6.98982e-08 -5.91446e-10
-4.77964e-08 -7.12425e-08 -1.88746e-09
1.95455e-07 4.94307e-08 -3.10984e-08
1.94709e-07 4.75476e-08 -2.73516e-08
-6.01665e-08 9.61426e-08 1.46987e-08
-5.31555e-08 -6.9322e-08 -1.34845e-09
-1.36513e-07 3.48374e-08 -2.15693e-08
-1.37736e-07 3.50101e-08 -2.2303e-08
1.77187e-07 -2.85304e-08 -1.45633e-08
-4.50106e-08 -1.22465e-09 1.61157e-09
-4.184e-08 8.6963e-11 -1.91326e-09
-4.06975e-08 -2.01174e-09 -1.90304e-09
1.73205e-07 -2.89297e-08 -1.48253e-08
1.72274e-07 -2.82104e-08 -1.38666e-08
-1.64405e-08 5.41864e-08 3.38252e-09
-1.45752e-08 5.80054e-08 4.39777e-09
8.03115e-08 9.44521e-08 5.51323e-09
1.77047e-07 5.57172e-08 1.5964e-08
1.74082e-07 5.50718e-08 1.43818e-08
1.17139e-07 -2.55084e-08 -1.05098e-08
1.1365e-07 -2.3435e-08 -8.64785e-09
2.01441e-07 5.01618e-08 -2.33289e-09
2.0376e-07 4.91302e-08 -5.78122e-10
-3.74455e-08 1.13228e-07 8.13773e-09
-4.09158e-08 1.13346e-07 8.78764e-09
-3.80582e-08 1.15804e-07 6.60919e-09
4.44523e-08 1.08522e-07 -2.01178e-09
3.89962e-08 1.11167e-07 -7.29051e-10
1.77797e-08 1.03829e-07 -5.09595e-09
1.69599e-08 1.02788e-07 -5.6721e-09
3.80859e-08 1.143e-07 -2.79466e-09
3.07581e-08 1.17094e-07 -3.57042e-09
3.99905e-08 1.13295e-07 -1.66668e-09
-1.52943e-08 -6.30452e-08 3.90147e-09
-1.67674e-08 -6.45878e-08 2.55239e-09
1.12416e-08 -5.96486e-08 9.29495e-09
1.10794e-08 -6.04919e-08 8.47623e-09
3.67504e-08 1.11237e-07 4.97348e-10
-3.67696e-08 1.09391e-07 1.10094e-08
-3.55074e-08 1.10516e-07 8.89524e-09
-2.42438e-08 9.85416e-08 1.1185e-08
-2.32059e-08 1.00987e-07 1.04936e-08
-6.539e-08 -2.7698e-08 8.70457e-10
-3.27954e-08 1.08469e-07 1.13212e-08
1.32549e-07 2.15446e-08 2.84095e-08
1.21951e-07 2.00002e-08 2.51928e-08
-6.30628e-08 9.41546e-08 1.56068e-08
6.66636e-08 1.2478e-07 -1.56844e-09
1.59896e-08 4.27101e-08 1.07968e-08
-2.76539e-08 1.07691e-07 9.72188e-09
-1.40751e-07 5.62724e-08 -3.29167e-08
-1.46168e-07 5.30803e-08 -3.18752e-08
2.4046e-07 3.08534e-08 -1.63103e-09
-1.41084e-07 5.50384e-08 -3.29619e-08
-8.90571e-09 1.28244e-07 -6.23857e-09
2.90646e-09 1.29956e-07 -6.06083e-09
-1.61693e-07 -1.35769e-08 -8.70039e-10
-1.63172e-07 -1.26761e-08 -1.78063e-09
2.0465e-07 4.91678e-08 3.41476e-08
1.99509e-07 5.32207e-08 3.6881e-08
1.07001e-07 8.673e-08 -7.68993e-09
-1.37843e-07 5.40735e-08 2.15007e-08
-1.37603e-07 5.24528e-08 2.06897e-08
-6.80688e-08 2.49342e-08 -6.11754e-09
-6.84249e-08 2.65016e-08 -6.14847e-09
-1.3791e-07 5.38559e-08 2.03748e-08
7.39505e-08 9.20565e-08 1.54437e-08
-2.64182e-10 6.0815e-08 -1.09698e-08
-8.12776e-10 6.05901e-08 -1.05998e-08
6.37331e-08 9.49556e-08 1.49041e-08
1.23328e-07 -3.43799e-08 -1.08705e-08
1.2731e-07 -3.39523e-08 -9.37049e-09
3.00789e-07 3.78313e-09 2.73602e-09
3.03833e-07 2.71642e-09 2.37282e-09
6.14309e-09 1.02462e-07 -2.22505e-09
2.00786e-07 5.04291e-08 5.18126e-09
1.08948e-07 8.19769e-08 -2.47091e-08
1.03504e-07 8.68611e-08 -2.50392e-08
1.68334e-08 1.01553e-07 2.14821e-09
1.64326e-08 1.00174e-07 -2.76443e-10
1.89495e-08 1.05768e-07 -5.00022e-09
3.08064e-08 1.21155e-07 -4.13673e-09
-1.4698e-07 2.6488e-08 1.55119e-08
-1.45665e-07 2.65167e-08 1.51842e-08
1.34333e-07 8.08323e-08 -5.39353e-09
1.36601e-07 8.57401e-08 2.71694e-09
1.38489e-07 8.3813e-08 3.85233e-09
1.3945e-07 8.35473e-08 3.95304e-09
-1.60565e-08 8.55304e-08 7.77034e-10
1.01997e-07 8.95248e-08 5.20995e-09
1.65531e-07 6.90475e-08 2.76391e-09
1.67795e-07 6.87206e-08 2.5129e-09
9.28861e-08 9.18404e-08 6.81306e-09
-2.41012e-08 -7.80005e-08 8.83468e-10
-1.90599e-08 -7.59525e-08 -4.07295e-10
9.0679e-08 9.31328e-08 5.15261e-09
1.89806e-07 5.02885e-08 -1.19986e-08
-1.25364e-09 2.26982e-08 3.87001e-09
-1.53621e-09 1.99571e-08 3.26969e-09
1.88665e-07 4.96667e-08 -9.65932e-09
1.95753e-07 4.80214e-08 -1.09521e-08
1.98511e-07 4.61552e-08 -8.72271e-09
1.86477e-07 5.15574e-08 -1.11015e-08
-7.51676e-09 1.74046e-08 -2.96631e-09
-7.90482e-09 2.03346e-08 -3.52433e-09
6.89634e-08 1.24129e-07 -1.91548e-09
-3.73297e-09 -6.26627e-08 -3.88273e-09
2.74366e-09 -6.34867e-08 -3.97521e-09
6.07964e-08 1.25881e-07 -3.04071e-09
-5.08414e-08 1.18228e-07 -7.25927e-09