# vtk DataFile Version 2.0
S, Created by Mohamad Ibrahim Cheikh
ASCII
DATASET UNSTRUCTURED_GRID
POINTS 23916 double
-135.846 69.9374 101.358
-138.881 67.8707 102.255
-301.07 -57.8968 54.5386
-298.088 -57.0695 57.344
-347.816 27.6741 42.9769
1.69919 5.19408 131.896
-307.924 64.7676 40.2576
-311.734 -52.855 52.2761
-307.962 62.7132 43.3552
-341.204 -26.3214 49.7775
-337.985 -25.7299 52.6902
-343.737 -22.325 49.5968
-342.103 -19.2096 52.2147
65.4655 39.7581 -123.768
69.0847 41.9671 -122.794
-332.483 -42.019 46.0908
-334.333 -38.7343 47.3133
-19.4799 19.967 130.303
-357.73 9.26958 -40.8722
-359.358 6.09487 -39.7044
-338.846 22.5701 53.4562
-161.761 -102.494 60.954
-161.716 -100.682 63.9162
-314.253 -66.7503 -29.627
-316.887 -66.4089 -26.8278
-153.458 73.7938 -95.3694
-149.882 75.4938 -94.7328
-339.106 25.7897 51.7715
-281.853 34.0954 80.8425
-246.646 85.1806 52.1564
-242.631 86.7093 51.9426
-160.399 65.1229 100.166
-158.056 67.3384 99.1515
-284.66 31.1351 80.8325
-334.717 1.72712 60.8645
-332.13 4.60911 62.429
-241.321 100.704 12.366
-247.138 -11.5683 99.0578
-250.14 -13.6412 97.8644
-216.023 -92.3747 -56.3699
-219.805 -92.6813 -54.0283
-215.364 -85.3307 66.8144
-218.558 -85.9113 64.7692
-207.824 -91.9168 60.7243
-216.847 10.376 107.514
-214.906 14.0133 107.579
-211.226 -92.2957 58.6778
-182.739 110.444 33.7303
-183.627 109.306 36.715
-283.627 2.93508 86.9859
-281.735 6.42787 87.5489
321.973 18.0181 -66.3882
323.625 14.5013 -66.2661
-260.211 27.7348 91.4608
-262.56 24.6785 91.5144
11.7227 7.79847 -131.706
-317.138 -52.5897 -48.422
-314.924 -52.017 -50.754
-325.627 -52.6831 -40.827
193.045 73.6405 86.2469
-322.862 -52.8084 -43.2796
35.9666 95.7331 -90.0045
-234.237 102.429 -14.6611
-238.052 101.292 -15.0302
-323.688 -53.8861 41.143
-325.881 -51.4596 42.1191
-27.0389 13.1244 -131.005
-126.078 120.389 31.3734
-129.228 119.514 33.1048
10.9424 14.2886 131.168
7.29662 16.5584 130.932
-239.885 34.662 95.7984
-242.837 32.3021 95.7124
-307.982 47.1426 59.9059
-243.091 34.6294 -94.8155
-15.2761 21.6261 130.107
-245.161 37.4074 -93.092
-243.495 -13.3977 99.9281
-243.451 -17.3517 99.3312
300.823 -15.4438 78.1421
299.719 -12.1268 79.239
-294.846 62.9629 53.0688
-298.685 62.1116 51.4182
-107.556 118.367 44.6876
-105.357 117.428 47.705
-238.301 76.9725 67.4296
-242.638 75.3673 67.3491
-311.084 44.0576 60.2906
-348.763 23.7572 44.3585
-359.642 18.767 -35.1615
-362.059 18.649 -32.0494
-191.149 -82.5362 -78.348
-192.182 -79.8383 -80.7961
7.94557 -8.61432 131.689
-336.131 38.6328 -45.8132
-242.181 -61.5761 -80.3219
-244.364 -59.0211 -81.4233
-197.561 84.8295 73.8204
-193.934 84.5627 75.2895
-193.047 -74.985 -85.0802
-158.219 95.5851 72.268
-341.884 36.7447 -41.9947
-245.581 88.2556 47.4462
-248.407 86.388 49.0554
-297.035 25.9389 -77.1307
60.763 -8.15154 -130.021
-299.393 23.0469 -76.9327
-351.607 -28.364 38.519
-348.977 -30.8339 39.5361
-319.763 64.6111 -27.0386
30.9847 18.5195 -130.244
-316.318 66.4953 -27.4294
-338.897 39.0592 -42.8616
-195.637 108.695 -30.3901
-191.959 109.708 -29.6104
-189.944 111.026 -26.0784
-193.707 110.675 -24.1074
-173.225 -116.731 -11.1459
-176.371 -115.419 -17.1493
-344.834 38.6686 37.0204
-296.746 -73.2403 -35.7614
-293.301 -74.7189 -36.1789
-176.182 -115.992 -13.0208
35.5935 21.5065 129.639
-27.1627 9.9473 131.281
-23.8613 11.6069 131.223
-249.799 -20.998 96.6618
68.0448 -15.3386 128.926
-25.0251 1.54144 131.7
-251.63 -17.3907 96.7964
-260.724 44.472 84.4025
-294.758 -67.4706 47.2722
-256.556 46.454 84.8973
-23.3218 -1.69661 131.737
-254.805 49.195 83.9941
-27.1121 6.71951 131.487
-254.412 86.9751 -43.9885
-254.363 88.7016 -40.4318
-191.324 62.0591 95.3473
-194.629 61.3526 94.9848
-246.792 89.6223 43.9894
-263.726 -80.9118 48.6012
-297.59 -62.8197 51.335
-297.938 -65.2817 47.9009
-283.083 20.7535 -84.748
-285.021 17.5933 -84.6676
302.606 53.805 -57.6021
304.975 51.6329 -58.0587
305.435 48.9283 -60.07
-39.7758 -18.6646 -129.93
-264.849 93.3703 -10.868
-207.306 94.0065 57.6649
-209.905 92.3023 59.2449
-73.1122 121.679 -44.3136
-358.15 29.2331 -29.4119
-266.881 92.9852 -7.58673
-374.943 10.3041 10.31
-376.016 7.78455 7.29101
-264.458 93.9857 -5.30162
-349.273 48.4654 -11.8158
-346.666 50.9422 -10.7481
179.809 93.6719 68.4926
178.563 96.0711 65.5034
174.258 96.8083 65.8365
-360.751 -4.95832 -38.29
-358.053 -5.93298 -41.1458
-80.9224 119.581 -48.1943
-324.874 63.7198 21.0266
-327.255 61.9871 21.6748
-328.786 59.9205 24.4694
-327.619 59.3431 27.5943
113.542 -120.032 -37.9215
-333.372 -52.3752 -32.7762
-336.606 -50.5673 -31.5459
110.957 -119.416 -40.6995
107.134 -119.875 -40.6047
-189.2 89.2576 71.2355
-189.624 86.9606 73.889
-354.335 -32.9623 31.0792
-351.631 -36.1748 31.2662
-77.5379 120.735 -45.9447
-317.967 -60.7832 36.7601
-262.156 -26.6952 -91.0893
-314.429 -61.7905 38.7529
-311.725 -64.4882 36.9924
-327.19 0.533211 -65.7051
-329.373 -1.84029 -64.3317
-182.627 -102.965 -52.3328
-328.896 -5.82721 -64.393
-240.883 -92.5091 41.9773
-281.049 66.1679 58.0968
-283.974 63.9341 58.8515
-329.19 -31.3762 -56.3228
-329.814 -34.2968 -54.1299
-327.364 -40.1771 -51.8582
-324.999 -43.3575 -51.1121
-308.368 -32.119 -68.923
-312.442 -30.6878 -67.3096
-301.408 46.8041 64.1165
-303.074 42.8567 65.891
-197.568 108.222 30.547
-201.141 107.341 30.7988
-279.491 14.5533 -87.456
-278.479 10.9015 -88.3775
-279.677 27.3231 -84.2678
-277.627 30.1739 -84.1247
-181.072 87.0573 -76.3603
-180.332 84.6048 -79.2756
-291.284 -52.8321 -65.1537
-287.393 -54.0765 -66.2393
-187.792 -104.158 -47.5121
-168.147 -116.813 17.8114
-257.307 -57.6282 -77.442
-292.13 83.2565 -6.64655
-257.876 67.2757 68.9665
-293.783 82.144 -10.4683
-186.692 -102.89 -50.7002
-183.161 -113.569 20.4663
58.8815 5.32964 130.273
55.8599 7.40326 130.335
-180.26 -114.681 17.1512
-74.2974 -116.373 -56.6175
-226.973 65.0331 82.9909
-225.504 68.2849 80.8415
-238.489 -80.8653 -62.6205
-235.992 -79.5588 -65.391
-342.248 32.2964 45.1684
-230.642 63.2347 83.1421
62.6153 75.8916 -105.757
-16.4131 -14.1613 131.112
-218.863 70.2444 -81.3954
-217.38 68.1249 -83.6519
-357.851 19.3588 37.0282
32.0142 -15.9767 -130.55
59.2443 78.0774 -104.394
-232.095 -43.4007 94.5795
-232.898 -46.2253 92.986
216.602 -104.658 26.956
212.528 -105.752 26.6547
211.016 -106.878 23.4431
-66.0836 125.096 -35.2196
-265.753 89.6276 -27.281
-268.079 87.9225 -29.9163
-66.7789 123.844 -39.2504
-317.512 0.217781 -71.2831
338.348 22.9039 53.6993
-41.5957 11.3667 -130.702
-45.5308 12.3903 -130.448
-289.382 76.3203 36.6968
334.594 18.4114 58.1251
337.583 19.9307 55.4461
-278.424 -13.8201 87.9899
-275.429 -16.3322 88.7104
-210.931 0.232096 109.439
-212.226 -3.06205 109.089
-85.1672 109.495 67.4302
-88.0286 110.343 65.5729
-377.19 -0.982999 -2.13387
-304.474 -69.4825 -35.3037
-302.846 -71.955 -31.9013
-234.374 -89.0304 52.653
-376.78 -6.30205 1.91296
-376.957 -4.81762 -1.94717
-274.174 -89.9883 11.0833
-282.414 -87.1366 8.15015
-276.92 -88.6838 13.0625
-280.684 -87.4297 11.599
9.63902 16.2248 -130.956
-352.457 -11.7701 45.5677
-248.322 49.4782 86.1763
-244.599 51.3378 86.392
-341.063 56.165 -5.28018
-343.722 54.3098 -3.15516
-253.667 -63.1779 -74.5288
-0.584384 2.8081 131.97
-352.187 -8.40746 -46.557
-352.638 -4.02759 -46.7235
-312.807 67.7393 29.254
-145.4 84.3251 -87.8917
-252.376 -34.2297 -91.9472
-248.883 -34.5548 -92.9855
-139.713 88.6999 -84.6553
-141.849 86.2376 -86.7389
-305.602 -66.5349 39.5353
-308.499 -64.458 40.2154
-302.336 -66.852 41.9973
-331.054 -16.3887 61.1345
-332.968 -22.5442 57.8117
-330.866 -19.9118 60.2058
-313.39 -57.5259 45.7212
-316.49 -55.8639 45.1651
-318.787 -56.3427 42.515
336.292 -18.5629 -56.8634
338.993 -16.3272 -55.571
-363.355 -31.7901 -15.7898
-291.314 79.1917 27.6176
-365.406 -28.2454 -16.7065
-287.006 74.3551 42.5493
-290.577 72.3701 43.0017
-290.984 31.6029 -77.8389
-288.501 33.5004 -78.1759
-333.652 12.9686 -60.2194
-331.305 15.8777 -61.1026
-261.604 85.843 -40.9419
-258.327 87.7386 -39.4434
-293.845 80.0506 21.086
-288.673 83.2275 17.1704
-251.127 96.8646 17.8936
-290.61 81.6341 20.4958
-342.545 23.5532 -50.0362
-345.747 23.1531 -47.4606
-345.872 26.6238 -45.4879
299.426 45.5213 66.1454
302.913 44.6085 64.8098
-39.4617 85.635 99.4987
-289.583 -62.7651 56.7252
303.832 40.9667 66.6609
-285.785 -51.4191 -69.1431
-313.508 71.3246 17.4196
-315.784 69.3702 20.0769
-282.937 -50.7828 -71.0222
-280.164 -53.2914 -70.5284
-295.26 80.3009 -17.3914
-291.47 82.0769 -16.9207
-333.455 59.6544 -15.8759
-290.275 83.2597 -13.263
-143.356 -103.03 65.5195
-140.412 -104.323 64.2419
-320.75 68.9821 -8.35161
-319.748 68.591 -14.2184
-321.732 67.9351 -11.655
-333.773 6.27779 -61.199
-331.706 3.49767 -62.7762
-331.79 9.92412 -62.0308
-318.806 40.7304 57.6326
-319.571 36.8284 59.7022
-279.355 70.8887 -53.3329
-282.98 70.3367 -51.6994
-175.512 106.921 -47.1218
-172.703 106.313 -49.6985
-168.637 -46.6182 -108.485
-169.917 -49.7367 -106.843
-173.804 -51.0232 -105.462
-156.974 79.7786 89.6805
65.4849 129.357 -12.8776
61.6123 129.531 -13.4526
-24.0655 4.4994 131.654
-285.021 23.5386 -83.2111
-288.184 22.904 -82.046
-253.562 -59.8845 -77.2422
-285.79 -51.6185 68.9919
68.7736 129.373 -10.3652
-123.439 -91.6129 -84.6498
-290.561 61.5245 57.4672
-291.921 58.7593 59.4815
-221.685 -92.1498 53.997
-222.703 -93.6484 50.812
8.07166 -71.4577 -110.95
11.6321 -70.9187 -111.256
-124.757 -94.1644 -81.557
-369.754 -11.4641 -23.5401
-343.615 -36.1787 -40.7381
-341.827 -40.2905 -38.6676
-371.589 -9.29151 -20.7996
-347.875 5.86326 -50.729
-334.579 57.2925 -20.8877
-306.77 18.2794 74.6203
-306.687 21.816 73.7065
-329.683 -32.098 55.5575
-344.514 5.53419 -53.4984
-131.242 49.1688 113.568
-127.758 50.9241 113.28
-342.234 8.33306 -54.9094
-343.095 -34.7388 42.4902
-47.6646 4.07324 130.879
-179.379 109.795 37.8108
-175.872 110.875 36.6572
-208.429 -73.6513 -81.7359
-315.782 43.5253 57.628
-214.804 -72.7389 -80.5233
-211.35 -71.5392 -82.6882
-339.656 27.0388 -50.6808
-1.40994 -83.3022 -102.394
-322.895 48.311 -48.2211
-321.956 51.4796 -45.6428
39.3994 129.126 -23.6725
45.4158 129.673 -18.8813
-316.373 -71.8272 -3.24833
[...]
POINT_DATA 23916
VECTORS F double
1.29048e-07 6.94959e-08 -2.67771e-08
1.26059e-07 7.20448e-08 -2.68574e-08
-8.73695e-08 7.42967e-08 1.98225e-08
-8.68379e-08 7.60019e-08 2.03725e-08
6.3991e-08 1.03364e-07 -3.15394e-09
-3.15822e-08 2.85363e-08 -1.07391e-09
1.26586e-07 7.78046e-08 -6.63251e-09
-8.27531e-08 7.78324e-08 1.82779e-08
1.21645e-07 7.73575e-08 -6.10791e-09
-4.51387e-08 9.64336e-08 1.31115e-08
-4.39698e-08 9.73233e-08 1.29942e-08
-3.93355e-08 1.00982e-07 1.20783e-08
-3.22012e-08 9.95788e-08 1.08048e-08
2.61275e-08 -8.37698e-09 -9.9898e-10
2.88058e-08 -1.15216e-08 -1.95359e-09
-7.23264e-08 8.64565e-08 1.49424e-08
-6.70531e-08 9.00371e-08 1.5701e-08
-6.67167e-09 5.03592e-08 -7.8389e-09
2.81744e-08 1.12727e-07 -4.6251e-09
2.08068e-08 1.15217e-07 -5.36989e-09
5.174e-08 1.00812e-07 -2.41136e-09
-1.50734e-07 4.25005e-08 2.24899e-08
-1.47372e-07 4.3328e-08 2.26006e-08
-1.0614e-07 6.89279e-08 -1.74613e-08
-1.05797e-07 6.80364e-08 -1.54192e-08
1.40351e-07 6.44144e-08 2.21925e-08
1.41357e-07 6.39127e-08 2.35513e-08
5.90032e-08 1.01602e-07 -3.29646e-09
6.9337e-08 8.42127e-08 -5.92047e-09
1.55936e-07 5.96835e-08 -7.19144e-09
1.56934e-07 5.88221e-08 -8.44431e-09
1.19295e-07 7.44024e-08 -2.49848e-08
1.22504e-07 7.24275e-08 -2.52803e-08
6.44331e-08 8.74109e-08 -5.88852e-09
1.01385e-08 1.03576e-07 3.88719e-09
1.52443e-08 1.00964e-07 2.47532e-09
1.84085e-07 5.42044e-08 -1.6e-09
-8.43994e-09 9.10203e-08 8.05173e-09
-9.1446e-09 8.96184e-08 9.63019e-09
-1.29305e-07 5.63205e-08 -3.1626e-08
-1.28827e-07 5.45083e-08 -2.93376e-08
-1.23515e-07 5.91339e-08 2.67789e-08
-1.23082e-07 5.74511e-08 2.53554e-08
-1.34267e-07 5.32944e-08 2.44115e-08
2.73048e-08 9.31019e-08 -2.24267e-09
3.66111e-08 8.97487e-08 -2.73663e-09
-1.34212e-07 5.206e-08 2.27366e-08
2.02525e-07 4.26814e-08 -5.42032e-09
1.98649e-07 4.278e-08 -5.72456e-09
1.44489e-08 9.30487e-08 2.62834e-09
2.13934e-08 9.04362e-08 1.78885e-09
1.81385e-08 -6.5046e-08 -6.8838e-09
1.37329e-08 -6.74851e-08 -6.55702e-09
5.72695e-08 8.40212e-08 -5.53069e-09
5.10706e-08 8.77722e-08 -5.73027e-09
-2.02764e-08 3.24216e-08 1.69876e-09
-8.0303e-08 7.86862e-08 -2.10674e-08
-8.00288e-08 8.02698e-08 -2.14719e-08
-8.489e-08 7.94577e-08 -1.96391e-08
7.33511e-08 -4.82044e-08 2.10579e-08
-8.48699e-08 8.05424e-08 -2.07619e-08
1.45383e-07 3.04764e-08 3.9529e-08
1.86243e-07 5.26807e-08 3.75049e-09
1.84993e-07 5.38432e-08 4.14422e-09
-8.92377e-08 7.74996e-08 1.55488e-08
-8.65414e-08 8.05797e-08 1.64723e-08
-5.6752e-09 6.74158e-08 6.89732e-09
2.28914e-07 3.08234e-08 -5.6523e-09
2.25836e-07 3.21124e-08 -7.99936e-09
-1.85777e-08 2.39601e-08 -2.4203e-09
-1.6063e-08 2.87147e-08 -3.52181e-09
6.71283e-08 8.15966e-08 -8.94375e-09
6.46824e-08 8.29831e-08 -7.91408e-09
9.41512e-08 8.33734e-08 -6.34904e-09
7.38505e-08 8.3107e-08 7.172e-09
-5.80681e-09 4.95278e-08 -8.31585e-09
7.61401e-08 8.4024e-08 9.21408e-09
-8.16093e-09 9.09751e-08 9.76273e-09
-1.61635e-08 8.99654e-08 1.08656e-08
-2.75279e-08 -6.37407e-08 3.76978e-10
-2.33696e-08 -6.2343e-08 1.28127e-09
1.21045e-07 7.63299e-08 -8.22431e-09
1.19878e-07 7.6146e-08 -6.72605e-09
2.28832e-07 3.04775e-08 -1.32975e-08
2.27448e-07 2.99227e-08 -1.21564e-08
1.39538e-07 6.15936e-08 -9.93581e-09
1.38384e-07 6.21945e-08 -8.5608e-09
8.93727e-08 8.67374e-08 -6.92613e-09
5.44706e-08 1.04538e-07 -3.55432e-09
4.93722e-08 1.14966e-07 -4.65572e-10
4.85782e-08 1.15118e-07 -2.03477e-10
-1.16542e-07 6.47958e-08 -3.34484e-08
-1.10822e-07 6.73244e-08 -3.42535e-08
-4.98453e-08 2.08745e-08 1.73369e-09
8.63268e-08 9.69108e-08 4.17662e-09
-7.96154e-08 7.57628e-08 -2.86915e-08
-7.7149e-08 7.8568e-08 -2.86044e-08
1.54078e-07 5.81719e-08 -1.63634e-08
1.55454e-07 5.95035e-08 -1.78082e-08
-1.03856e-07 7.14502e-08 -3.41218e-08
1.78045e-07 5.27295e-08 -2.20192e-08
8.364e-08 9.90106e-08 3.26664e-09
1.61203e-07 5.83047e-08 -6.29917e-09
1.57766e-07 6.03384e-08 -8.44808e-09
5.6847e-08 8.98637e-08 3.41832e-09
-3.94678e-08 -6.51972e-09 -1.84944e-09
5.21969e-08 9.28508e-08 2.94608e-09
-5.54629e-08 1.00484e-07 1.20095e-08
-5.78817e-08 9.71301e-08 1.32002e-08
1.31239e-07 8.13427e-08 4.35621e-09
-6.67748e-09 1.81992e-08 2.39327e-09
1.33029e-07 7.97016e-08 5.39555e-09
8.64648e-08 9.74421e-08 5.09706e-09
1.98038e-07 4.57689e-08 7.61626e-09
1.99093e-07 4.46713e-08 7.48999e-09
2.03264e-07 4.40005e-08 6.07093e-09
2.01804e-07 4.43241e-08 4.96293e-09
-1.66462e-07 3.10172e-08 -8.10427e-09
-1.63379e-07 3.22723e-08 -1.14857e-08
8.48881e-08 9.86391e-08 -6.2238e-09
-1.10199e-07 6.49069e-08 -2.0978e-08
-1.1036e-07 6.36217e-08 -2.18586e-08
-1.6536e-07 3.19574e-08 -1.07503e-08
-9.33351e-09 4.98329e-09 -5.12942e-10
-1.99174e-08 5.17075e-08 -4.42248e-09
-1.90972e-08 5.10607e-08 -4.94155e-09
-2.11163e-08 8.79697e-08 1.24289e-08
-5.15434e-08 -1.71991e-08 1.28438e-09
-3.26577e-08 4.78764e-08 -1.32008e-09
-1.64154e-08 9.11985e-08 1.11606e-08
8.46408e-08 7.64945e-08 -8.2945e-09
-1.01242e-07 6.75446e-08 1.91175e-08
8.53689e-08 7.74156e-08 -1.07754e-08
-3.8298e-08 4.44154e-08 -2.58064e-10
9.17318e-08 7.46267e-08 -9.63893e-09
-2.5969e-08 5.12987e-08 -3.27714e-09
1.60222e-07 6.09364e-08 7.03332e-09
1.64304e-07 6.11353e-08 7.57046e-09
1.15528e-07 7.49319e-08 -2.03896e-08
1.14746e-07 7.40363e-08 -1.90356e-08
1.64103e-07 5.90734e-08 -7.63688e-09
-1.1819e-07 5.99266e-08 2.12472e-08
-9.48938e-08 7.08772e-08 1.93849e-08
-1.00357e-07 7.02729e-08 1.93491e-08
4.87038e-08 8.86272e-08 1.78581e-09
4.18416e-08 9.14701e-08 1.76199e-09
6.0883e-08 -5.49786e-08 -1.21961e-08
5.9562e-08 -5.68613e-08 -1.2263e-08
5.51916e-08 -5.77298e-08 -1.26646e-08
-4.79935e-08 6.28564e-08 -7.2306e-09
1.72342e-07 6.01518e-08 2.58616e-09
1.70381e-07 5.14057e-08 -8.81131e-09
1.6768e-07 5.29285e-08 -9.72636e-09
2.39798e-07 2.2569e-08 1.35332e-08
7.25475e-08 1.09716e-07 8.91543e-10
1.71378e-07 6.04318e-08 2.58472e-09
2.80249e-08 1.2658e-07 -1.72535e-09
2.13273e-08 1.27218e-07 -1.16339e-09
1.7342e-07 5.98462e-08 1.83923e-09
1.09692e-07 9.74164e-08 2.59646e-09
1.13416e-07 9.47854e-08 1.38672e-09
1.05421e-07 -4.33973e-08 2.54679e-08
1.11183e-07 -4.16898e-08 2.40376e-08
1.10998e-07 -4.19936e-08 2.57796e-08
-5.75827e-09 1.13969e-07 -8.11664e-09
-6.24165e-09 1.13043e-07 -9.65067e-09
2.3317e-07 2.60848e-08 1.67891e-08
1.29615e-07 8.19277e-08 -3.09269e-09
1.27278e-07 8.35043e-08 -3.53696e-09
1.22784e-07 8.42862e-08 -4.41378e-09
1.21782e-07 8.3843e-08 -3.28826e-09
-1.53703e-07 -1.77588e-08 -1.31995e-10
-8.87996e-08 8.04643e-08 -1.80004e-08
-8.81268e-08 8.20958e-08 -1.64708e-08
-1.53951e-07 -1.74023e-08 -3.25247e-10
-1.54402e-07 -1.68245e-08 -2.06024e-10
1.63437e-07 5.67585e-08 -1.79729e-08
1.57976e-07 5.71096e-08 -1.7577e-08
-6.75175e-08 9.85225e-08 1.02488e-08
-7.11885e-08 9.41544e-08 1.0917e-08
2.37763e-07 2.39531e-08 1.38187e-08
-9.90319e-08 7.21662e-08 1.44531e-08
-2.83376e-08 8.93837e-08 -1.62105e-08
-9.90352e-08 7.21464e-08 1.66578e-08
-1.01809e-07 6.90108e-08 1.527e-08
1.23056e-08 9.97297e-08 -6.69302e-09
8.49088e-09 1.01439e-07 -8.22423e-09
-1.46661e-07 4.71174e-08 -3.00434e-08
-1.87757e-10 9.98141e-08 -8.91527e-09
-1.31888e-07 5.07852e-08 1.92615e-08
1.24526e-07 7.23337e-08 -8.62996e-09
1.21658e-07 7.46385e-08 -9.21374e-09
-4.75213e-08 9.36911e-08 -1.81887e-08
-5.45292e-08 9.35151e-08 -1.85741e-08
-6.38237e-08 8.95254e-08 -2.00327e-08
-6.76455e-08 8.56014e-08 -1.99534e-08
-4.18198e-08 9.08853e-08 -1.94464e-08
-4.18124e-08 9.13565e-08 -1.78891e-08
9.38682e-08 8.2762e-08 -6.39013e-09
8.45245e-08 8.49374e-08 -7.64611e-09
1.96705e-07 4.51843e-08 -4.32027e-09
1.95908e-07 4.58141e-08 -3.03138e-09
3.78355e-08 9.1489e-08 4.2086e-10
3.24293e-08 8.98486e-08 -1.42769e-09
6.11467e-08 8.8172e-08 3.7429e-09
6.6528e-08 8.58275e-08 3.90433e-09
1.5827e-07 5.62648e-08 1.81981e-08
1.56073e-07 5.65041e-08 1.68363e-08
-7.44436e-08 8.05461e-08 -2.45667e-08
-7.41988e-08 8.01703e-08 -2.60359e-08
-1.47845e-07 4.53666e-08 -2.79115e-08
-1.66821e-07 3.01551e-08 4.95639e-09
-7.70081e-08 7.79788e-08 -2.67021e-08
1.58533e-07 6.82638e-08 2.01004e-09
1.22433e-07 6.97311e-08 -1.19736e-08
1.56201e-07 6.86706e-08 2.16113e-09
-1.46519e-07 4.62802e-08 -2.78659e-08
-1.62362e-07 3.31912e-08 6.28455e-09
-2.71698e-08 -1.20321e-08 1.99576e-09
-2.59725e-08 -9.52838e-09 1.90406e-09
-1.64646e-07 3.22208e-08 3.585e-09
-1.68161e-07 2.32917e-08 -2.08572e-08
1.18794e-07 6.65655e-08 -1.23855e-08
1.27322e-07 6.46317e-08 -1.11105e-08
-1.08863e-07 6.33723e-08 -3.10763e-08
-1.08789e-07 6.53725e-08 -3.14686e-08
7.13458e-08 1.00368e-07 -5.57903e-09
1.17213e-07 6.71337e-08 -1.12502e-08
8.61018e-08 -4.90237e-09 2.72331e-09
-5.53939e-08 3.62793e-08 3.06949e-09
1.31035e-07 6.6595e-08 1.43349e-08
1.28047e-07 6.56212e-08 1.27025e-08
4.80757e-08 1.10697e-07 -9.89905e-10
-5.14353e-08 1.23215e-08 -3.05216e-09
9.0058e-08 -2.5255e-10 6.06831e-09
-5.77418e-08 8.35687e-08 2.10002e-08
-6.38352e-08 8.37972e-08 2.20825e-08
-1.2976e-07 -3.36445e-08 -2.97198e-09
-1.30377e-07 -3.28591e-08 -3.09657e-09
-1.32317e-07 -3.25653e-08 -2.65036e-09
2.51478e-07 1.97081e-08 1.2231e-08
1.66418e-07 6.20024e-08 5.22388e-09
1.62919e-07 6.30597e-08 6.59073e-09
2.47302e-07 2.00732e-08 1.18233e-08
1.24367e-08 9.71424e-08 -6.48546e-09
2.7095e-08 -6.9587e-08 8.7791e-09
-1.18298e-09 7.7503e-08 6.78628e-09
-9.92954e-10 8.02955e-08 7.66912e-09
1.43673e-07 6.88744e-08 -4.53214e-09
2.03364e-08 -6.88216e-08 7.46725e-09
2.19118e-08 -6.89112e-08 8.43759e-09
-1.37388e-08 9.08179e-08 8.9418e-09
-1.4607e-08 8.9685e-08 1.09592e-08
1.27381e-08 9.10308e-08 2.8128e-09
5.29812e-09 9.27146e-08 3.86438e-09
2.16219e-07 3.9597e-08 -3.08636e-08
2.13301e-07 3.78364e-08 -2.86114e-08
-2.6033e-09 1.27562e-07 -2.43333e-09
-1.05218e-07 6.71047e-08 -2.09719e-08
-1.10268e-07 6.51218e-08 -1.8726e-08
-1.25694e-07 5.42295e-08 2.31964e-08
-1.7238e-08 1.25749e-07 -1.40403e-09
-1.30749e-08 1.26187e-07 -2.31919e-09
-1.31686e-07 4.94098e-08 2.34219e-09
-1.286e-07 5.11855e-08 1.67575e-09
-1.30228e-07 5.05596e-08 5.25387e-09
-1.30207e-07 5.16701e-08 3.70835e-09
-8.23128e-09 3.65945e-08 4.4597e-09
-1.98707e-08 1.07387e-07 8.92118e-09
9.32107e-08 7.52607e-08 -1.03271e-08
9.45564e-08 7.46309e-08 -1.15724e-08
1.22277e-07 9.10289e-08 1.28439e-09
1.19151e-07 9.23005e-08 -4.11392e-10
-8.50566e-08 7.51394e-08 -2.8252e-08
-3.36285e-08 2.98007e-08 -6.52341e-10
-1.07445e-08 1.0858e-07 -9.65718e-09
-1.62748e-10 1.10593e-07 -9.38298e-09
1.3404e-07 7.73693e-08 -3.67795e-09
1.594e-07 5.88046e-08 2.41337e-08
-4.03302e-08 8.67129e-08 -1.87283e-08
-3.98497e-08 8.88588e-08 -1.99628e-08
1.67849e-07 5.4653e-08 2.33492e-08
1.60153e-07 5.81193e-08 2.57178e-08
-1.03123e-07 6.74051e-08 1.58453e-08
-1.01994e-07 7.01757e-08 1.66877e-08
-1.03213e-07 6.82055e-08 1.76019e-08
-2.34883e-08 9.80807e-08 1.07208e-08
-3.63353e-08 9.70308e-08 1.22166e-08
-3.19441e-08 9.66325e-08 1.04665e-08
-9.10117e-08 7.47367e-08 1.76573e-08
-9.08339e-08 7.63775e-08 1.6542e-08
-9.15161e-08 7.55737e-08 1.61409e-08
-2.86405e-08 -6.86492e-08 1.67289e-09
-2.67102e-08 -6.96154e-08 5.04904e-10
-6.88998e-08 1.00814e-07 -8.85589e-09
1.5019e-07 6.88275e-08 -3.40064e-09
-6.27242e-08 1.05299e-07 -1.00642e-08
1.3981e-07 6.94203e-08 -5.85387e-09
1.37819e-07 7.14833e-08 -6.28512e-09
6.86621e-08 8.84722e-08 4.49482e-09
7.01781e-08 8.80741e-08 6.03415e-09
3.51715e-08 1.03909e-07 -1.48102e-09
4.07581e-08 1.00442e-07 -9.56312e-10
1.60215e-07 6.34481e-08 7.69727e-09
1.63012e-07 6.14408e-08 5.9608e-09
1.52764e-07 6.92759e-08 -2.36203e-09
1.5795e-07 6.73326e-08 -1.25824e-09
1.7745e-07 5.68238e-08 -2.70549e-09
1.54258e-07 6.78461e-08 -2.44481e-09
5.7856e-08 1.04186e-07 5.50691e-10
5.67317e-08 1.04226e-07 2.46521e-10
6.43325e-08 1.04576e-07 1.31922e-09
4.89437e-08 -5.90027e-08 1.34804e-08
4.89736e-08 -5.84776e-08 1.22262e-08
1.42451e-07 6.76361e-08 -5.12951e-08
-9.37808e-08 7.12754e-08 2.02508e-08
4.32871e-08 -6.00517e-08 1.27499e-08
-6.9018e-08 8.00825e-08 -2.46288e-08
1.41263e-07 7.62725e-08 -1.03309e-09
1.37409e-07 7.73755e-08 -2.74421e-09
-6.90018e-08 8.2647e-08 -2.54403e-08
-7.11178e-08 7.92064e-08 -2.52614e-08
1.53642e-07 6.99307e-08 3.53749e-09
1.55371e-07 6.82707e-08 3.49082e-09
1.25081e-07 8.65115e-08 3.4242e-09
1.58273e-07 6.80791e-08 3.27616e-09
-1.52931e-07 4.05539e-08 2.28045e-08
-1.53982e-07 3.83468e-08 2.10671e-08
1.39094e-07 7.94184e-08 1.95079e-09
1.3803e-07 7.92401e-08 2.22965e-09
1.36658e-07 7.95663e-08 1.92156e-09
2.22269e-08 1.04005e-07 -4.17262e-09
1.79542e-08 1.00805e-07 -5.99847e-09
2.97784e-08 1.01168e-07 -3.31505e-09
8.44801e-08 8.86591e-08 -5.44342e-09
7.57072e-08 8.94867e-08 -5.5875e-09
1.35439e-07 7.26509e-08 9.71036e-09
1.34353e-07 7.24622e-08 8.55025e-09
1.95444e-07 4.44835e-08 1.18104e-08
1.96039e-07 4.43644e-08 1.14981e-08
-6.19881e-08 8.60875e-08 -2.51963e-08
-6.8053e-08 8.66839e-08 -2.7102e-08
-6.78577e-08 8.38371e-08 -2.68694e-08
1.48145e-07 6.3333e-08 -2.45929e-08
1.64683e-07 -2.11401e-08 -1.14813e-07
2.89241e-07 -3.79204e-08 -2.06753e-07
-2.87299e-08 4.70206e-08 -2.24991e-09
5.31998e-08 9.1426e-08 3.5527e-09
5.24753e-08 8.96072e-08 2.4486e-09
-7.72421e-08 7.61501e-08 -2.79942e-08
-7.36168e-08 7.87292e-08 2.15688e-08
-5.48784e-08 -3.62401e-08 -4.96518e-07
-1.34155e-07 5.07701e-08 -3.09954e-08
1.17937e-07 7.52794e-08 -7.58857e-09
1.11719e-07 7.66399e-08 -8.58158e-09
-1.3312e-07 5.2008e-08 2.1844e-08
-1.35226e-07 5.11896e-08 2.17823e-08
-1.15911e-07 1.57415e-08 -1.11708e-08
-1.15313e-07 1.47823e-08 -1.08988e-08
-1.3746e-07 4.99897e-08 -3.19738e-08
-2.47548e-08 1.17982e-07 -9.85274e-09
-6.29131e-08 9.35458e-08 -1.81078e-08
-7.04222e-08 8.96475e-08 -1.71918e-08
-2.10623e-08 1.20241e-07 -7.6456e-09
2.11309e-08 1.08153e-07 -5.24082e-09
1.21373e-07 8.83798e-08 4.39046e-09
3.96684e-08 9.30028e-08 -2.81651e-09
4.76845e-08 9.33717e-08 -3.34489e-09
-5.16242e-08 9.0469e-08 1.47623e-08
2.16345e-08 1.07969e-07 -5.88824e-09
8.66622e-08 8.40246e-08 -2.41169e-08
8.6395e-08 8.56432e-08 -2.65709e-08
2.65277e-08 1.0622e-07 -4.12282e-09
-6.33959e-08 9.3461e-08 1.37387e-08
-2.33333e-08 6.38762e-08 -3.02835e-09
2.00062e-07 4.26253e-08 -7.57421e-09
2.01959e-07 4.13669e-08 -6.49212e-09
-9.9553e-08 7.05797e-08 -3.2518e-08
8.80761e-08 8.60225e-08 -5.88271e-09
-9.80501e-08 7.12458e-08 -3.23355e-08
-9.81344e-08 7.33558e-08 -3.27558e-08
6.35299e-08 1.00873e-07 1.68939e-09
-1.30027e-07 1.6489e-08 -1.31954e-08
1.0008e-07 8.84617e-08 6.57986e-09
1.06951e-07 8.73673e-08 6.17657e-09
3.424e-07 -6.39179e-09 3.49304e-08
3.67447e-07 -1.00625e-08 3.92015e-08
-1.16881e-07 6.32468e-08 -4.80992e-09
-1.15224e-07 6.33367e-08 -5.99955e-09
1.47683e-07 6.34306e-08 8.00915e-09
2.85399e-07 1.11799e-08 -2.84939e-08
2.82524e-07 1.34687e-08 -3.03643e-08
1.48825e-07 6.37761e-08 9.67794e-09
3.51566e-07 -7.90979e-09 3.74507e-08
-1.29827e-07 5.25885e-08 1.52442e-08
-1.5303e-07 -1.6282e-08 -3.42821e-09
-1.51356e-07 -1.73106e-08 -4.22112e-09
-6.5291e-08 8.2183e-08 2.01557e-08
-6.27213e-08 8.27259e-08 1.87988e-08
1.38543e-07 7.40354e-08 6.45115e-09
1.37064e-07 7.54921e-08 5.10695e-09
-1.29405e-07 5.16171e-08 1.6359e-08
-1.25896e-07 5.38928e-08 1.72102e-08
-5.69811e-08 8.32462e-08 -2.22402e-08
3.13316e-08 -5.41429e-08 1.48076e-08
2.5969e-07 1.79284e-08 6.71764e-09
2.61261e-07 1.73545e-08 7.55139e-09
-5.15674e-09 -7.24373e-09 1.58818e-09
-5.65998e-08 8.2879e-08 -2.35124e-08
-8.43537e-08 8.11214e-08 -3.14647e-08
-8.51488e-08 8.02379e-08 -3.0816e-08
-8.53557e-08 7.81868e-08 -3.15392e-08
-6.33345e-08 -4.95136e-08 -4.87906e-09
-6.86468e-08 -4.70397e-08 -4.40349e-09
-1.80583e-08 1.21312e-08 3.07261e-10
-6.9039e-08 -4.74734e-08 -5.43438e-09
-7.33817e-08 8.02794e-08 2.03286e-08
-4.76392e-08 -5.44286e-08 -1.55476e-09
-4.81378e-08 -5.43976e-08 -2.43019e-09
-7.4046e-08 7.86712e-08 2.02431e-08
3.40562e-08 9.51233e-08 -1.48587e-09
-4.19842e-09 1.2171e-07 -6.71028e-09
7.34491e-09 1.22872e-07 -6.36119e-09
2.66451e-08 9.33039e-08 -2.79668e-09
-7.4659e-08 7.73557e-08 2.32539e-08
-7.61454e-08 -5.12984e-08 -4.77402e-09
-7.67419e-08 -5.19328e-08 -5.94928e-09
-7.23406e-08 7.83896e-08 2.25495e-08
-7.21138e-08 8.06526e-08 2.30104e-08
8.40129e-08 -4.94749e-08 7.52617e-09
8.34477e-08 -4.99257e-08 6.24622e-09
-4.47166e-08 -6.79276e-08 -6.51602e-10
-4.67222e-08 -6.92323e-08 -1.9159e-09
1.90432e-07 4.75253e-08 -2.9775e-08
1.89704e-07 4.56873e-08 -2.61053e-08
-5.70555e-08 9.25684e-08 1.43254e-08
-5.19081e-08 -6.73524e-08 -1.39201e-09
-1.32007e-07 3.47808e-08 -2.16626e-08
-1.33158e-07 3.48988e-08 -2.23657e-08
1.73693e-07 -2.80665e-08 -1.42188e-08
-4.37513e-08 -1.45279e-10 1.60066e-09
-4.06207e-08 1.03576e-09 -1.91702e-09
-3.95064e-08 -1.01457e-09 -1.89597e-09
1.69689e-07 -2.84403e-08 -1.44751e-08
1.68719e-07 -2.77069e-08 -1.34949e-08
-1.55631e-08 5.40735e-08 3.43244e-09
-1.3689e-08 5.7862e-08 4.45115e-09
7.82087e-08 9.10239e-08 5.26294e-09
1.71645e-07 5.37853e-08 1.54579e-08
1.68806e-07 5.31747e-08 1.39285e-08
1.14336e-07 -2.49438e-08 -1.02259e-08
1.10873e-07 -2.28603e-08 -8.36674e-09
1.9487e-07 4.83039e-08 -2.07382e-09
1.97123e-07 4.73146e-08 -3.87036e-10
-3.515e-08 1.09029e-07 7.92169e-09
-3.85093e-08 1.09144e-07 8.5301e-09
-3.57469e-08 1.11536e-07 6.42798e-09
4.36647e-08 1.04361e-07 -1.83657e-09
3.84355e-08 1.06883e-07 -6.026e-10
1.81497e-08 1.00148e-07 -5.0329e-09
1.73392e-08 9.91438e-08 -5.59445e-09
3.75969e-08 1.10047e-07 -2.74971e-09
3.05819e-08 1.1274e-07 -3.50334e-09
3.93871e-08 1.08941e-07 -1.52074e-09
-1.50587e-08 -6.13483e-08 3.73356e-09
-1.65032e-08 -6.2856e-08 2.41806e-09
1.07523e-08 -5.81196e-08 9.01066e-09
1.05935e-08 -5.89435e-08 8.21149e-09
3.62541e-08 1.06947e-07 5.69788e-10
-3.44956e-08 1.05314e-07 1.07045e-08
-3.32914e-08 1.06409e-07 8.66221e-09
-2.23771e-08 9.48803e-08 1.09224e-08
-2.13475e-08 9.72665e-08 1.02481e-08
-6.35641e-08 -2.62329e-08 6.83952e-10
-3.06367e-08 1.04421e-07 1.10224e-08
1.29065e-07 2.12113e-08 2.79983e-08
1.18716e-07 1.9779e-08 2.48981e-08
-5.9812e-08 9.06738e-08 1.52184e-08
6.50667e-08 1.19911e-07 -1.50355e-09
1.5769e-08 4.27525e-08 1.08518e-08
-2.56897e-08 1.03681e-07 9.4868e-09
-1.35008e-07 5.49281e-08 -3.2631e-08
-1.40279e-07 5.17624e-08 -3.16055e-08
2.33018e-07 2.96789e-08 -1.30824e-09
-1.35294e-07 5.36748e-08 -3.26543e-08
-7.53998e-09 1.23554e-07 -6.056e-09
3.86105e-09 1.25136e-07 -5.87415e-09
-1.56924e-07 -1.29358e-08 -1.2257e-09
-1.58345e-07 -1.20765e-08 -2.09017e-09
2.0005e-07 4.78475e-08 3.34285e-08
1.95059e-07 5.18079e-08 3.61103e-08
1.03717e-07 8.33835e-08 -7.26093e-09
-1.31951e-07 5.22285e-08 2.1129e-08
-1.31695e-07 5.06169e-08 2.03146e-08
-6.58939e-08 2.53955e-08 -6.16581e-09
-6.62393e-08 2.69643e-08 -6.2016e-09
-1.32008e-07 5.19701e-08 2.00027e-08
7.34703e-08 8.99599e-08 1.51487e-08
8.65107e-10 6.09988e-08 -1.10603e-08
3.40636e-10 6.06923e-08 -1.06688e-08
6.35511e-08 9.28523e-08 1.4634e-08
1.19929e-07 -3.3431e-08 -1.02822e-08
1.2382e-07 -3.30315e-08 -8.82213e-09
2.92019e-07 3.42826e-09 2.62221e-09
2.95391e-07 2.39786e-09 2.3576e-09
7.78421e-09 1.00468e-07 -2.1859e-09
1.943e-07 4.86183e-08 5.09729e-09
1.07174e-07 7.94325e-08 -2.39112e-08
1.01895e-07 8.41781e-08 -2.42503e-08
1.81456e-08 9.95783e-08 2.12425e-09
1.77626e-08 9.81952e-08 -2.68125e-10
1.92489e-08 1.01951e-07 -4.93653e-09
3.06375e-08 1.16598e-07 -4.03543e-09
-1.42028e-07 2.64075e-08 1.56593e-08
-1.408e-07 2.64888e-08 1.53606e-08
1.2993e-07 7.77041e-08 -5.03088e-09
1.32059e-07 8.24695e-08 2.65062e-09
1.33879e-07 8.06259e-08 3.74679e-09
1.34812e-07 8.03736e-08 3.83884e-09
-1.45758e-08 8.47978e-08 8.52924e-10
9.8951e-08 8.62107e-08 4.98668e-09
1.59982e-07 6.64718e-08 2.74829e-09
1.62162e-07 6.61526e-08 2.5167e-09
9.022e-08 8.84658e-08 6.5299e-09
-2.38223e-08 -7.57219e-08 8.44785e-10
-1.88971e-08 -7.37357e-08 -3.98383e-10
8.80878e-08 8.9692e-08 4.92427e-09
1.83932e-07 4.83682e-08 -1.13197e-08
-1.11964e-09 2.31431e-08 3.96245e-09
-1.41244e-09 2.04229e-08 3.36023e-09
1.82819e-07 4.7769e-08 -9.04937e-09
1.89645e-07 4.61858e-08 -1.02982e-08
1.92318e-07 4.43926e-08 -8.14741e-09
1.80687e-07 4.95965e-08 -1.0468e-08
-7.14412e-09 1.8366e-08 -3.15344e-09
-7.51785e-09 2.13166e-08 -3.71702e-09
6.72631e-08 1.19268e-07 -1.81935e-09
-3.88326e-09 -6.0746e-08 -3.74042e-09
2.40135e-09 -6.15739e-08 -3.82648e-09
5.94421e-08 1.20973e-07 -2.9104e-09
-4.80854e-08 1.13974e-07 -7.10973e-09
5.30213e-08 1.22956e-07 -2.08749e-09