# vtk DataFile Version 2.0
S, Created by Mohamad Ibrahim Cheikh
ASCII
DATASET UNSTRUCTURED_GRID
POINTS 23916 double
-135.718 70.0065 101.331
-138.755 67.9423 102.229
-301.157 -57.823 54.5583
-298.174 -56.994 57.3643
-347.752 27.7768 42.9738
1.66782 5.22273 131.895
-307.798 64.845 40.251
-311.816 -52.7776 52.2943
-307.841 62.79 43.3492
-341.249 -26.2255 49.7905
-338.029 -25.6331 52.7031
-343.776 -22.2246 49.6088
-342.135 -19.1107 52.2255
65.4915 39.7499 -123.769
69.1134 41.9557 -122.796
-332.554 -41.9331 46.1057
-334.4 -38.6448 47.3289
-19.4864 20.0174 130.295
-357.702 9.38162 -40.8768
-359.337 6.20938 -39.7097
-338.794 22.6703 53.4538
-161.911 -102.452 60.9765
-161.862 -100.639 63.9388
-314.359 -66.6818 -29.6445
-316.992 -66.3413 -26.8432
-153.318 73.8579 -95.3473
-149.742 75.5574 -94.7094
-339.047 25.8907 51.7683
-281.784 34.1791 80.8367
-246.491 85.2399 52.1493
-242.475 86.7678 51.9342
-160.28 65.1969 100.141
-157.934 67.4104 99.1263
-284.596 31.222 80.8267
-334.707 1.83004 60.8683
-332.115 4.70945 62.4314
-241.138 100.758 12.3645
-247.147 -11.4778 99.0658
-250.149 -13.5521 97.874
-216.152 -92.3186 -56.4015
-219.933 -92.6271 -54.0576
-215.486 -85.2719 66.8411
-218.68 -85.8541 64.7945
-207.957 -91.8638 60.7487
-216.82 10.4686 107.512
-214.869 14.1026 107.576
-211.359 -92.2439 58.7004
-182.538 110.486 33.7249
-183.43 109.348 36.7093
-283.613 3.02756 86.9886
-281.714 6.51775 87.5507
321.991 17.9534 -66.3951
323.638 14.4342 -66.2727
-260.153 27.8183 91.4553
-262.509 24.7657 91.5087
11.7025 7.83094 -131.704
-317.218 -52.5114 -48.443
-315.003 -51.9372 -50.7754
-325.711 -52.6042 -40.8466
193.118 73.5925 86.2679
-322.946 -52.7283 -43.3003
36.1115 95.7634 -89.9651
-234.052 102.481 -14.6574
-237.868 101.346 -15.026
-323.777 -53.8091 41.1585
-325.966 -51.3795 42.1355
-27.0444 13.1918 -130.998
-125.85 120.42 31.3678
-129.003 119.546 33.0969
10.9239 14.3127 131.166
7.28071 16.5872 130.929
-239.818 34.7431 95.7895
-242.773 32.3846 95.7045
-307.888 47.2255 59.8996
-243.018 34.712 -94.8084
-15.2817 21.6757 130.098
-245.085 37.491 -93.0828
-243.503 -13.3072 99.9378
-243.466 -17.2623 99.342
300.796 -15.5072 78.1425
299.696 -12.1888 79.2402
-294.725 63.0388 53.0607
-298.565 62.1872 51.4116
-107.328 118.397 44.6744
-105.13 117.457 47.6929
-238.162 77.0337 67.4197
-242.5 75.4291 67.3407
-310.995 44.1438 60.2837
-348.709 23.8611 44.355
-359.593 18.8812 -35.1619
-362.011 18.7634 -32.0496
-191.265 -82.4716 -78.3814
-192.292 -79.7712 -80.8303
7.89601 -8.59332 131.691
-336.045 38.7291 -45.809
-242.26 -61.5007 -80.3505
-244.44 -58.9429 -81.4518
-197.408 84.8873 73.8042
-193.779 84.6218 75.2718
-193.15 -74.9139 -85.1142
-158.042 95.6375 72.2461
-341.801 36.8431 -41.9914
-245.421 88.3136 47.44
-248.25 86.4479 49.047
-296.978 26.0283 -77.1274
60.7237 -8.1579 -130.023
-299.341 23.1392 -76.9298
-351.662 -28.2642 38.5309
-349.034 -30.7374 39.5493
-319.632 64.692 -27.0343
30.9781 18.5378 -130.242
-316.185 66.5745 -27.424
-338.811 39.1561 -42.8565
-195.44 108.74 -30.3826
-191.761 109.752 -29.6029
-189.742 111.07 -26.0723
-193.507 110.719 -24.1024
-173.39 -116.7 -11.154
-176.533 -115.387 -17.1608
-344.749 38.7666 37.0142
-296.855 -73.1758 -35.7823
-293.411 -74.6557 -36.2007
-176.347 -115.96 -13.0316
35.5842 21.5117 129.639
-27.1824 9.99904 131.277
-23.8802 11.658 131.218
-249.819 -20.9106 96.6742
67.9935 -15.3556 128.927
-25.0575 1.58935 131.699
-251.646 -17.3001 96.8075
-260.64 44.548 84.3943
-294.859 -67.4035 47.2912
-256.471 46.5309 84.8866
-23.3598 -1.65214 131.736
-254.713 49.2692 83.9845
-27.1378 6.77084 131.484
-254.252 87.0357 -43.9815
-254.199 88.7624 -40.4242
-191.209 62.1336 95.3271
-194.515 61.4262 94.9659
-246.629 89.681 43.9819
-263.843 -80.8522 48.6224
-297.684 -62.7493 51.3543
-298.038 -65.2119 47.9202
-283.034 20.8416 -84.7462
-284.979 17.6843 -84.6658
302.667 53.7503 -57.6143
305.034 51.5763 -58.0709
305.49 48.8709 -60.0826
-39.8235 -18.6018 -129.938
-264.677 93.4301 -10.8654
-207.136 94.0576 57.6562
-209.738 92.3549 59.2353
-72.8733 121.702 -44.3001
-358.078 29.3421 -29.411
-266.711 93.0453 -7.58414
-374.915 10.4299 10.3082
-375.995 7.91096 7.28986
-264.286 94.0452 -5.29977
-349.164 48.5622 -11.8132
-346.553 51.0363 -10.7467
179.914 93.6287 68.5181
178.673 96.0295 65.5274
174.368 96.7665 65.8623
-360.757 -4.84504 -38.2981
-358.059 -5.82062 -41.1554
-80.6901 119.607 -48.1775
-324.745 63.8012 21.0235
-327.129 62.07 21.6713
-328.664 60.0043 24.465
-327.498 59.4264 27.591
113.389 -120.049 -37.9216
-333.46 -52.2952 -32.7942
-336.693 -50.4857 -31.5623
110.804 -119.434 -40.6998
106.98 -119.892 -40.6049
-189.037 89.314 71.2176
-189.467 87.0173 73.8716
-354.402 -32.8644 31.0894
-351.701 -36.0813 31.2771
-77.3011 120.759 -45.9309
-318.065 -60.7115 36.7744
-262.184 -26.6063 -91.1055
-314.527 -61.7188 38.7695
-311.826 -64.4197 37.0076
-327.177 0.632352 -65.7117
-329.364 -1.73945 -64.3399
-182.773 -102.919 -52.3628
-328.896 -5.72798 -64.4019
-241.014 -92.4587 41.9965
-280.925 66.2398 58.0882
-283.853 64.0083 58.8423
-329.237 -31.2831 -56.3409
-329.868 -34.2038 -54.1484
-327.427 -40.0881 -51.8782
-325.067 -43.2724 -51.132
-308.409 -32.0287 -68.9424
-312.484 -30.5969 -67.3274
-301.315 46.8864 64.1102
-302.989 42.9411 65.8834
-197.372 108.267 30.5427
-200.946 107.387 30.7959
-279.453 14.6443 -87.4556
-278.447 10.9908 -88.379
-279.616 27.4107 -84.2641
-277.561 30.2592 -84.1208
-180.914 87.1132 -76.3422
-180.177 84.661 -79.2589
-291.358 -52.752 -65.1782
-287.466 -53.9968 -66.2652
-187.939 -104.113 -47.54
-168.312 -116.783 17.8164
-257.383 -57.5507 -77.4687
-291.972 83.3243 -6.64454
-257.754 67.3449 68.9546
-293.628 82.2122 -10.4662
-186.838 -102.844 -50.728
-183.322 -113.536 20.4726
58.8545 5.31779 130.275
55.834 7.39392 130.337
-180.423 -114.649 17.1548
-74.4646 -116.35 -56.6384
-226.854 65.0993 82.9786
-225.377 68.3491 80.8305
-238.597 -80.8022 -62.6515
-236.1 -79.4937 -65.4224
-342.177 32.3961 45.1628
-230.525 63.3014 83.131
62.7011 75.8867 -105.754
-16.4682 -14.1249 131.116
-218.732 70.3106 -81.3811
-217.253 68.1902 -83.6393
-357.803 19.4688 37.0272
31.963 -15.9642 -130.553
59.334 78.0771 -104.388
-232.152 -43.3176 94.6005
-232.962 -46.142 93.008
216.473 -104.692 26.953
212.399 -105.785 26.6516
210.884 -106.91 23.4404
-65.8332 125.115 -35.2074
-265.588 89.6893 -27.2758
-267.917 87.9851 -29.9098
-66.5325 123.864 -39.2386
-317.499 0.314359 -71.2895
338.375 22.8346 53.7081
-41.5967 11.4442 -130.695
-45.5316 12.4705 -130.44
-289.239 76.3888 36.6923
334.614 18.3428 58.1326
337.605 19.8621 55.4545
-278.437 -13.7298 87.9988
-275.443 -16.2431 88.7213
-210.918 0.322646 109.441
-212.221 -2.96983 109.093
-84.9519 109.534 67.3996
-87.8162 110.38 65.5444
-377.193 -0.856219 -2.1363
-304.578 -69.4158 -35.3246
-302.955 -71.8902 -31.92
-234.499 -88.9765 52.6762
-376.797 -6.17706 1.91156
-376.97 -4.69219 -1.94948
-274.305 -89.9392 11.0856
-282.542 -87.0858 8.1518
-277.049 -88.6336 13.0678
-280.813 -87.3783 11.6027
9.63086 16.2614 -130.951
-352.477 -11.6634 45.5765
-248.23 49.553 86.1661
-244.505 51.412 86.3806
-340.942 56.2554 -5.2789
-343.603 54.4015 -3.15556
-253.751 -63.1031 -74.557
-0.617781 2.838 131.969
-352.198 -8.29953 -46.5667
-352.638 -3.91767 -46.7329
-312.673 67.8162 29.2504
-145.241 84.3836 -87.8677
-252.416 -34.1434 -91.9659
-248.922 -34.4664 -93.0054
-139.546 88.7542 -84.632
-141.69 86.2954 -86.7133
-305.704 -66.4679 39.5511
-308.6 -64.3882 40.232
-302.439 -66.7842 42.0148
-331.077 -16.2912 61.1452
-333.004 -22.4478 57.8239
-330.898 -19.8158 60.2162
-313.481 -57.4517 45.7388
-316.58 -55.788 45.1816
-318.877 -56.2676 42.5311
336.264 -18.6312 -56.8618
338.967 -16.3964 -55.5705
-363.423 -31.6899 -15.7986
-291.165 79.2601 27.6142
-365.468 -28.1407 -16.7165
-286.867 74.424 42.5435
-290.44 72.4411 42.9955
-290.915 31.6909 -77.8345
-288.431 33.5879 -78.1699
-333.617 13.0718 -60.2209
-331.265 15.9776 -61.1035
-261.445 85.906 -40.9342
-258.165 87.7997 -39.4374
-293.694 80.1195 21.0836
-288.516 83.2944 17.1692
-250.951 96.921 17.8909
-290.457 81.7016 20.4934
-342.487 23.6568 -50.0357
-345.69 23.2567 -47.4603
-345.808 26.7277 -45.4866
299.474 45.4625 66.1588
302.962 44.5503 64.822
-39.3196 85.7025 99.4475
-289.676 -62.6943 56.7454
303.875 40.9069 66.6736
-285.854 -51.3394 -69.1677
-313.368 71.4004 17.4186
-315.647 69.4471 20.0742
-283.005 -50.7006 -71.0475
-280.234 -53.2127 -70.5535
-295.107 80.3704 -17.3879
-291.316 82.1447 -16.9172
-333.33 59.7404 -15.8725
-290.117 83.3274 -13.2597
-143.508 -102.989 65.5423
-140.565 -104.284 64.263
-320.612 69.061 -8.34966
-319.61 68.6698 -14.2162
-321.596 68.0141 -11.6531
-333.75 6.38117 -61.2032
-331.688 3.59787 -62.7822
-331.76 10.0247 -62.0341
-318.722 40.8185 57.6272
-319.496 36.9173 59.6967
-279.221 70.9609 -53.3233
-282.846 70.4087 -51.6909
-175.317 106.965 -47.11
-172.508 106.357 -49.687
-168.698 -46.5324 -108.51
-169.985 -49.6503 -106.87
-173.871 -50.9397 -105.489
-156.826 79.8415 89.6561
65.8648 129.336 -12.8477
61.9972 129.508 -13.459
-24.0939 4.54646 131.652
-284.967 23.6295 -83.2076
-288.132 22.9931 -82.0436
-253.638 -59.8087 -77.2701
-285.863 -51.5402 69.0133
69.1631 129.35 -10.3421
-123.572 -91.5622 -84.6808
-290.443 61.5993 57.4597
-291.81 58.8354 59.473
-221.817 -92.098 54.0188
-222.837 -93.5974 50.8337
7.95633 -71.4419 -110.961
11.5174 -70.9038 -111.267
-124.893 -94.1145 -81.5889
-369.778 -11.3468 -23.5499
-343.677 -36.0857 -40.7562
-341.897 -40.2013 -38.6847
-371.61 -9.17199 -20.8072
-347.854 5.97076 -50.7342
-334.459 57.3804 -20.8834
-306.731 18.3719 74.6175
-306.639 21.9087 73.7032
-329.734 -32.0081 55.5722
-344.493 5.64151 -53.5043
-131.155 49.2525 113.544
-127.672 51.0093 113.254
-342.207 8.43864 -54.9135
-343.158 -34.6459 42.5039
-47.6877 4.13708 130.876
-179.18 109.837 37.8033
-175.671 110.917 36.6508
-208.528 -73.581 -81.7684
-315.694 43.6108 57.6222
-214.902 -72.668 -80.5555
-211.447 -71.4661 -82.7209
-339.593 27.139 -50.6791
-1.5393 -83.2857 -102.407
-322.796 48.3989 -48.2146
-321.849 51.5664 -45.6367
39.737 129.119 -23.6409
45.7652 129.661 -18.8549
-316.489 -71.7644 -3.25314
[...]
POINT_DATA 23916
VECTORS F double
1.28185e-07 6.87241e-08 -2.64598e-08
1.2521e-07 7.12547e-08 -2.65498e-08
-8.5998e-08 7.33813e-08 1.96545e-08
-8.54648e-08 7.50753e-08 2.02025e-08
6.34535e-08 1.02033e-07 -3.08516e-09
-3.11561e-08 2.87676e-08 -1.09086e-09
1.25231e-07 7.68095e-08 -6.49736e-09
-8.1452e-08 7.68673e-08 1.81163e-08
1.20353e-07 7.63694e-08 -5.97988e-09
-4.4306e-08 9.52474e-08 1.29914e-08
-4.31401e-08 9.61254e-08 1.28767e-08
-3.85631e-08 9.97416e-08 1.19668e-08
-3.15211e-08 9.8354e-08 1.07088e-08
2.58745e-08 -8.1128e-09 -9.29298e-10
2.85332e-08 -1.12439e-08 -1.87556e-09
-7.11733e-08 8.53891e-08 1.481e-08
-6.59548e-08 8.89278e-08 1.55585e-08
-6.30901e-09 5.04565e-08 -7.86721e-09
2.81354e-08 1.11345e-07 -4.58876e-09
2.08711e-08 1.13806e-07 -5.32747e-09
5.13729e-08 9.95382e-08 -2.35096e-09
-1.48808e-07 4.21376e-08 2.2423e-08
-1.45473e-07 4.29599e-08 2.25313e-08
-1.0457e-07 6.8077e-08 -1.73686e-08
-1.04239e-07 6.7187e-08 -1.53416e-08
1.39256e-07 6.37615e-08 2.1976e-08
1.4026e-07 6.32653e-08 2.33216e-08
5.85442e-08 1.00308e-07 -3.22347e-09
6.87897e-08 8.31522e-08 -5.8005e-09
1.54284e-07 5.89289e-08 -7.0395e-09
1.55276e-07 5.80779e-08 -8.27405e-09
1.18431e-07 7.35337e-08 -2.46672e-08
1.21618e-07 7.15787e-08 -2.49535e-08
6.39512e-08 8.6303e-08 -5.76896e-09
1.03171e-08 1.02283e-07 3.8707e-09
1.53515e-08 9.97111e-08 2.47678e-09
1.82078e-07 5.35378e-08 -1.52864e-09
-7.92087e-09 9.00012e-08 8.00832e-09
-8.62118e-09 8.86077e-08 9.57138e-09
-1.27474e-07 5.57915e-08 -3.15094e-08
-1.26997e-07 5.39766e-08 -2.92302e-08
-1.21734e-07 5.85369e-08 2.66295e-08
-1.21303e-07 5.68558e-08 2.52128e-08
-1.32405e-07 5.27542e-08 2.42826e-08
2.74602e-08 9.20582e-08 -2.18374e-09
3.66411e-08 8.87455e-08 -2.67382e-09
-1.32349e-07 5.15173e-08 2.2613e-08
2.00423e-07 4.21522e-08 -5.28235e-09
1.96598e-07 4.2249e-08 -5.57868e-09
1.4626e-08 9.19175e-08 2.63914e-09
2.14793e-08 8.93351e-08 1.8111e-09
1.78814e-08 -6.44326e-08 -6.80583e-09
1.35064e-08 -6.68479e-08 -6.48432e-09
5.69138e-08 8.29884e-08 -5.42179e-09
5.07993e-08 8.66934e-08 -5.62102e-09
-2.00279e-08 3.25215e-08 1.71581e-09
-7.90172e-08 7.77513e-08 -2.09326e-08
-7.87399e-08 7.93251e-08 -2.1334e-08
-8.35669e-08 7.85017e-08 -1.9515e-08
7.26269e-08 -4.78606e-08 2.09235e-08
-8.35399e-08 7.95817e-08 -2.06273e-08
1.44545e-07 3.03031e-08 3.93594e-08
1.8423e-07 5.2048e-08 3.7391e-09
1.82989e-07 5.31952e-08 4.12883e-09
-8.78825e-08 7.65273e-08 1.54086e-08
-8.52148e-08 7.95755e-08 1.63231e-08
-5.4066e-09 6.73048e-08 6.9144e-09
2.26647e-07 3.04321e-08 -5.49852e-09
2.23598e-07 3.17051e-08 -7.81699e-09
-1.82968e-08 2.42115e-08 -2.45539e-09
-1.57709e-08 2.89638e-08 -3.56204e-09
6.66941e-08 8.05963e-08 -8.78968e-09
6.42653e-08 8.19684e-08 -7.77779e-09
9.32325e-08 8.23203e-08 -6.23084e-09
7.33493e-08 8.21925e-08 7.07451e-09
-5.46074e-09 4.96564e-08 -8.35175e-09
7.55996e-08 8.30872e-08 9.0949e-09
-7.63802e-09 8.99633e-08 9.7006e-09
-1.55431e-08 8.89743e-08 1.0797e-08
-2.73406e-08 -6.31707e-08 3.48924e-10
-2.32181e-08 -6.17909e-08 1.24635e-09
1.19784e-07 7.53606e-08 -8.07423e-09
1.18627e-07 7.51815e-08 -6.59532e-09
2.26614e-07 3.00807e-08 -1.30657e-08
2.25244e-07 2.95291e-08 -1.1936e-08
1.38124e-07 6.08095e-08 -9.74363e-09
1.36977e-07 6.14014e-08 -8.38535e-09
8.85193e-08 8.5635e-08 -6.79881e-09
5.40621e-08 1.03204e-07 -3.48312e-09
4.90677e-08 1.13531e-07 -4.72702e-10
4.82786e-08 1.1368e-07 -2.11308e-10
-1.1486e-07 6.4296e-08 -3.33364e-08
-1.09181e-07 6.68032e-08 -3.41281e-08
-4.92777e-08 2.11221e-08 1.74005e-09
8.55137e-08 9.57051e-08 4.11154e-09
-7.82508e-08 7.50302e-08 -2.85436e-08
-7.58142e-08 7.78052e-08 -2.84485e-08
1.52586e-07 5.74437e-08 -1.61027e-08
1.53953e-07 5.87612e-08 -1.75367e-08
-1.02279e-07 7.09063e-08 -3.39925e-08
1.76376e-07 5.20664e-08 -2.16867e-08
8.28564e-08 9.77732e-08 3.2144e-09
1.59483e-07 5.75693e-08 -6.15822e-09
1.56089e-07 5.95758e-08 -8.28053e-09
5.64701e-08 8.88252e-08 3.35491e-09
-3.91091e-08 -6.18395e-09 -1.84817e-09
5.18822e-08 9.17748e-08 2.8882e-09
-5.45117e-08 9.92574e-08 1.1899e-08
-5.69056e-08 9.59352e-08 1.30745e-08
1.29816e-07 8.03265e-08 4.30613e-09
-6.59635e-09 1.83778e-08 2.4237e-09
1.31586e-07 7.87089e-08 5.33254e-09
8.56467e-08 9.62296e-08 5.02311e-09
1.95966e-07 4.52337e-08 7.55943e-09
1.97016e-07 4.41493e-08 7.43383e-09
2.01139e-07 4.34842e-08 6.03252e-09
1.99689e-07 4.38031e-08 4.93635e-09
-1.64386e-07 3.06765e-08 -8.09643e-09
-1.61314e-07 3.19215e-08 -1.14692e-08
8.40689e-08 9.73691e-08 -6.11378e-09
-1.08557e-07 6.41217e-08 -2.0869e-08
-1.08713e-07 6.28541e-08 -2.1745e-08
-1.63284e-07 3.16078e-08 -1.07371e-08
-9.22391e-09 5.32094e-09 -5.72931e-10
-1.94194e-08 5.17662e-08 -4.4352e-09
-1.86166e-08 5.11471e-08 -4.95889e-09
-2.0447e-08 8.69873e-08 1.23464e-08
-5.11062e-08 -1.68236e-08 1.29604e-09
-3.20758e-08 4.79561e-08 -1.3259e-09
-1.5803e-08 9.01743e-08 1.10854e-08
8.39209e-08 7.55319e-08 -8.13869e-09
-9.97057e-08 6.66992e-08 1.89552e-08
8.46468e-08 7.64421e-08 -1.05909e-08
-3.77006e-08 4.45202e-08 -2.60131e-10
9.09247e-08 7.36841e-08 -9.46481e-09
-2.54304e-08 5.13719e-08 -3.28801e-09
1.58517e-07 6.02123e-08 6.96317e-09
1.62545e-07 6.0405e-08 7.49611e-09
1.14575e-07 7.40231e-08 -2.01112e-08
1.13794e-07 7.31408e-08 -1.87731e-08
1.62345e-07 5.83286e-08 -7.48016e-09
-1.16453e-07 5.92075e-08 2.10876e-08
-9.34336e-08 6.99989e-08 1.92223e-08
-9.88342e-08 6.94006e-08 1.9186e-08
4.84409e-08 8.76207e-08 1.74146e-09
4.167e-08 9.04276e-08 1.71578e-09
6.02651e-08 -5.44778e-08 -1.20636e-08
5.89527e-08 -5.63455e-08 -1.21312e-08
5.46183e-08 -5.72018e-08 -1.25279e-08
-4.73334e-08 6.27712e-08 -7.21024e-09
1.70444e-07 5.94162e-08 2.58708e-09
1.68633e-07 5.07552e-08 -8.62724e-09
1.6596e-07 5.22561e-08 -9.53034e-09
2.37857e-07 2.23238e-08 1.34247e-08
7.19182e-08 1.0832e-07 8.65865e-10
1.69489e-07 5.96917e-08 2.58798e-09
2.80168e-08 1.2499e-07 -1.70709e-09
2.14057e-08 1.25624e-07 -1.1517e-09
1.71509e-07 5.91129e-08 1.85554e-09
1.08537e-07 9.61687e-08 2.57334e-09
1.12207e-07 9.35735e-08 1.38003e-09
1.04418e-07 -4.31199e-08 2.53547e-08
1.10133e-07 -4.14282e-08 2.39468e-08
1.09949e-07 -4.17369e-08 2.5683e-08
-5.37279e-09 1.12606e-07 -8.04978e-09
-5.84572e-09 1.11683e-07 -9.56897e-09
2.31211e-07 2.57899e-08 1.66163e-08
1.28198e-07 8.08819e-08 -3.01425e-09
1.25888e-07 8.24344e-08 -3.45213e-09
1.21451e-07 8.32054e-08 -4.31821e-09
1.20464e-07 8.2766e-08 -3.20291e-09
-1.52239e-07 -1.7534e-08 -2.23681e-10
-8.74497e-08 7.94842e-08 -1.78826e-08
-8.67897e-08 8.10969e-08 -1.63685e-08
-1.52479e-07 -1.71759e-08 -4.2091e-10
-1.52927e-07 -1.66036e-08 -3.04078e-10
1.61843e-07 5.60471e-08 -1.76938e-08
1.56457e-07 5.63953e-08 -1.73018e-08
-6.64385e-08 9.73212e-08 1.01534e-08
-7.00731e-08 9.29969e-08 1.08122e-08
2.35783e-07 2.36933e-08 1.37106e-08
-9.75591e-08 7.1251e-08 1.43231e-08
-2.75698e-08 8.84646e-08 -1.61214e-08
-9.75536e-08 7.12346e-08 1.65067e-08
-1.00294e-07 6.81323e-08 1.51354e-08
1.24795e-08 9.85578e-08 -6.65887e-09
8.71632e-09 1.0024e-07 -8.17294e-09
-1.4473e-07 4.67126e-08 -2.99634e-08
1.3784e-10 9.86489e-08 -8.86023e-09
-1.30016e-07 5.01829e-08 1.91306e-08
1.2324e-07 7.14222e-08 -8.47524e-09
1.20406e-07 7.36947e-08 -9.05259e-09
-4.66313e-08 9.25987e-08 -1.80531e-08
-5.35516e-08 9.24222e-08 -1.84394e-08
-6.27339e-08 8.84739e-08 -1.98915e-08
-6.65138e-08 8.45923e-08 -1.98192e-08
-4.09595e-08 8.98466e-08 -1.93073e-08
-4.09582e-08 9.03124e-08 -1.77688e-08
9.29618e-08 8.17129e-08 -6.26794e-09
8.37473e-08 8.38677e-08 -7.50943e-09
1.94635e-07 4.46248e-08 -4.19606e-09
1.93841e-07 4.52465e-08 -2.92365e-09
3.77277e-08 9.04566e-08 3.87328e-10
3.23943e-08 8.88447e-08 -1.44676e-09
6.0737e-08 8.71563e-08 3.67619e-09
6.60462e-08 8.48487e-08 3.84053e-09
1.56773e-07 5.56415e-08 1.80068e-08
1.54624e-07 5.58843e-08 1.66587e-08
-7.31817e-08 7.96571e-08 -2.44192e-08
-7.29329e-08 7.92914e-08 -2.58753e-08
-1.45895e-07 4.4953e-08 -2.78345e-08
-1.64744e-07 2.98222e-08 4.93396e-09
-7.56857e-08 7.71822e-08 -2.65516e-08
1.56774e-07 6.74172e-08 2.01576e-09
1.21212e-07 6.8846e-08 -1.17663e-08
1.5447e-07 6.78203e-08 2.16123e-09
-1.44587e-07 4.58679e-08 -2.77922e-08
-1.60293e-07 3.28137e-08 6.24689e-09
-2.69574e-08 -1.16586e-08 1.96691e-09
-2.57555e-08 -9.15732e-09 1.87031e-09
-1.62569e-07 3.18545e-08 3.55842e-09
-1.66318e-07 2.31875e-08 -2.08617e-08
1.17692e-07 6.57229e-08 -1.21686e-08
1.26111e-07 6.38065e-08 -1.09035e-08
-1.07194e-07 6.2739e-08 -3.09353e-08
-1.07125e-07 6.47369e-08 -3.13293e-08
7.0714e-08 9.90793e-08 -5.47706e-09
1.16118e-07 6.62837e-08 -1.10503e-08
8.53336e-08 -4.75451e-09 2.7825e-09
-5.46856e-08 3.64187e-08 3.08246e-09
1.29808e-07 6.58451e-08 1.41731e-08
1.26858e-07 6.48867e-08 1.2559e-08
4.77565e-08 1.09283e-07 -9.60585e-10
-5.0929e-08 1.25468e-08 -3.06083e-09
8.92854e-08 -1.32134e-10 6.11445e-09
-5.66264e-08 8.26986e-08 2.08545e-08
-6.26523e-08 8.29282e-08 2.19285e-08
-1.28571e-07 -3.33091e-08 -2.95601e-09
-1.29183e-07 -3.25319e-08 -3.08037e-09
-1.31102e-07 -3.22397e-08 -2.63993e-09
2.49454e-07 1.94956e-08 1.2174e-08
1.64605e-07 6.1252e-08 5.18238e-09
1.61146e-07 6.22965e-08 6.53252e-09
2.45452e-07 1.98511e-08 1.17103e-08
1.26102e-08 9.60158e-08 -6.45253e-09
2.67622e-08 -6.9001e-08 8.69385e-09
-8.85148e-10 7.7312e-08 6.8042e-09
-6.89252e-10 8.01029e-08 7.68754e-09
1.42112e-07 6.80019e-08 -4.4196e-09
2.00662e-08 -6.82387e-08 7.39071e-09
2.16278e-08 -6.83264e-08 8.35211e-09
-1.32055e-08 8.97474e-08 8.88706e-09
-1.40564e-08 8.86348e-08 1.08845e-08
1.30916e-08 9.00682e-08 2.82345e-09
5.73838e-09 9.17388e-08 3.86413e-09
2.14349e-07 3.90776e-08 -3.04299e-08
2.11446e-07 3.73333e-08 -2.81873e-08
-2.22502e-09 1.26005e-07 -2.4139e-09
-1.03642e-07 6.62864e-08 -2.08512e-08
-1.08635e-07 6.43216e-08 -1.86313e-08
-1.23873e-07 5.36144e-08 2.30476e-08
-1.66931e-08 1.24232e-07 -1.39864e-09
-1.25776e-08 1.24668e-07 -2.30452e-09
-1.29812e-07 4.8754e-08 2.2901e-09
-1.2676e-07 5.05036e-08 1.62971e-09
-1.28367e-07 4.98891e-08 5.18316e-09
-1.28352e-07 5.09864e-08 3.65001e-09
-8.08119e-09 3.66627e-08 4.47995e-09
-1.93293e-08 1.06053e-07 8.83806e-09
9.24005e-08 7.4317e-08 -1.01489e-08
9.37373e-08 7.36977e-08 -1.13791e-08
1.20948e-07 8.98642e-08 1.28624e-09
1.17862e-07 9.11176e-08 -3.87935e-10
-8.36434e-08 7.43802e-08 -2.81005e-08
-3.31661e-08 3.00041e-08 -6.64248e-10
-1.03008e-08 1.07293e-07 -9.58461e-09
1.58309e-10 1.09263e-07 -9.3062e-09
1.32576e-07 7.63803e-08 -3.58028e-09
1.58062e-07 5.82049e-08 2.39096e-08
-3.94215e-08 8.58442e-08 -1.86239e-08
-3.89414e-08 8.79777e-08 -1.98431e-08
1.66421e-07 5.40831e-08 2.3122e-08
1.5882e-07 5.75188e-08 2.54694e-08
-1.01583e-07 6.65457e-08 1.57051e-08
-1.00469e-07 6.92891e-08 1.65407e-08
-1.01665e-07 6.73427e-08 1.74464e-08
-2.29023e-08 9.68705e-08 1.06275e-08
-3.55942e-08 9.58361e-08 1.21082e-08
-3.12567e-08 9.54487e-08 1.03814e-08
-8.9619e-08 7.38013e-08 1.75008e-08
-8.94486e-08 7.54258e-08 1.63987e-08
-9.01299e-08 7.46276e-08 1.59981e-08
-2.84808e-08 -6.79819e-08 1.65417e-09
-2.65712e-08 -6.8936e-08 4.96606e-10
-6.78177e-08 9.96065e-08 -8.80047e-09
1.48539e-07 6.79575e-08 -3.30532e-09
-6.17009e-08 1.04042e-07 -9.99312e-09
1.38305e-07 6.85398e-08 -5.72493e-09
1.36337e-07 7.05736e-08 -6.15109e-09
6.81398e-08 8.74419e-08 4.42193e-09
6.96417e-08 8.70534e-08 5.94476e-09
3.50561e-08 1.02665e-07 -1.49198e-09
4.0561e-08 9.92463e-08 -9.70799e-10
1.58499e-07 6.26881e-08 7.62028e-09
1.61263e-07 6.07067e-08 5.90653e-09
1.51079e-07 6.84036e-08 -2.28108e-09
1.56205e-07 6.64883e-08 -1.19092e-09
1.75511e-07 5.61206e-08 -2.61916e-09
1.52559e-07 6.69944e-08 -2.36235e-09
5.74321e-08 1.02903e-07 5.22995e-10
5.63163e-08 1.02944e-07 2.24279e-10
6.38191e-08 1.03277e-07 1.28417e-09
4.84374e-08 -5.85333e-08 1.33789e-08
4.84678e-08 -5.80117e-08 1.21361e-08
1.41936e-07 6.72347e-08 -5.10713e-08
-9.23236e-08 7.04073e-08 2.00875e-08
4.283e-08 -5.95674e-08 1.26481e-08
-6.78098e-08 7.92098e-08 -2.4483e-08
1.39702e-07 7.53042e-08 -9.7469e-10
1.35898e-07 7.63925e-08 -2.66445e-09
-6.77867e-08 8.17555e-08 -2.52838e-08
-6.98816e-08 7.8348e-08 -2.5109e-08
1.51941e-07 6.90645e-08 3.51301e-09
1.53653e-07 6.74282e-08 3.46953e-09
1.23721e-07 8.54172e-08 3.39116e-09
1.5652e-07 6.72374e-08 3.26055e-09
-1.5103e-07 4.02505e-08 2.27612e-08
-1.5208e-07 3.80547e-08 2.10279e-08
1.3755e-07 7.84153e-08 1.94603e-09
1.36507e-07 7.82443e-08 2.21546e-09
1.35148e-07 7.85645e-08 1.91187e-09
2.22777e-08 1.02765e-07 -4.15886e-09
1.80495e-08 9.96039e-08 -5.96688e-09
2.9722e-08 9.99649e-08 -3.30664e-09
8.36839e-08 8.75286e-08 -5.33292e-09
7.50244e-08 8.8355e-08 -5.48045e-09
1.34027e-07 7.17805e-08 9.59962e-09
1.32949e-07 7.15934e-08 8.45234e-09
1.9347e-07 4.3976e-08 1.17013e-08
1.94068e-07 4.38606e-08 1.13941e-08
-6.0834e-08 8.55262e-08 -2.5097e-08
-6.68394e-08 8.61179e-08 -2.69931e-08
-6.66392e-08 8.32676e-08 -2.67617e-08
1.46879e-07 6.25554e-08 -2.42525e-08
3.77821e-07 -2.005e-08 3.38066e-08
3.84297e-07 -2.44285e-08 -2.05446e-08
-2.81934e-08 4.7107e-08 -2.25848e-09
5.28931e-08 9.03847e-08 3.48979e-09
5.21709e-08 8.85906e-08 2.39606e-09
-7.591e-08 7.53773e-08 -2.78372e-08
-7.23812e-08 7.77955e-08 2.13926e-08
2.24905e-07 -2.58239e-08 -1.43383e-07
-1.32482e-07 5.0511e-08 -3.09465e-08
1.16718e-07 7.43234e-08 -7.44634e-09
1.10582e-07 7.56692e-08 -8.42929e-09
-1.31256e-07 5.14415e-08 2.17168e-08
-1.33339e-07 5.06248e-08 2.16506e-08
-1.14746e-07 1.58836e-08 -1.12339e-08
-1.14151e-07 1.4929e-08 -1.096e-08
-1.35744e-07 4.97247e-08 -3.19185e-08
-2.41363e-08 1.1657e-07 -9.76647e-09
-6.18605e-08 9.2431e-08 -1.79743e-08
-6.92893e-08 8.85784e-08 -1.70769e-08
-2.04836e-08 1.18807e-07 -7.58322e-09
2.11839e-08 1.06852e-07 -5.2076e-09
1.20067e-07 8.72622e-08 4.34065e-09
3.94791e-08 9.18454e-08 -2.74472e-09
4.73942e-08 9.21983e-08 -3.26544e-09
-5.07051e-08 8.93545e-08 1.4632e-08
2.16878e-08 1.06667e-07 -5.84918e-09
8.63724e-08 8.3242e-08 -2.38935e-08
8.61062e-08 8.48565e-08 -2.63351e-08
2.6515e-08 1.04948e-07 -4.10242e-09
-6.23519e-08 9.23151e-08 1.36164e-08
-2.27251e-08 6.38111e-08 -3.03088e-09
1.98002e-07 4.20939e-08 -7.40365e-09
1.99887e-07 4.08526e-08 -6.33475e-09
-9.80003e-08 6.99919e-08 -3.23855e-08
8.72324e-08 8.49323e-08 -5.76807e-09
-9.65118e-08 7.06366e-08 -3.21982e-08
-9.65964e-08 7.27427e-08 -3.26156e-08
6.30248e-08 9.96382e-08 1.65201e-09
-1.28708e-07 1.65997e-08 -1.32634e-08
9.90862e-08 8.73758e-08 6.49176e-09
1.05862e-07 8.62871e-08 6.09406e-09
3.33915e-07 -7.32647e-09 2.86869e-08
3.43971e-07 -1.18322e-08 2.08522e-08
-1.15208e-07 6.24222e-08 -4.80819e-09
-1.13568e-07 6.25125e-08 -5.99299e-09
1.46154e-07 6.26842e-08 7.91818e-09
2.83429e-07 1.09762e-08 -2.81822e-08
2.80607e-07 1.33139e-08 -3.02217e-08
1.47288e-07 6.30266e-08 9.56917e-09
3.35797e-07 -8.94818e-09 2.7946e-08
-1.27974e-07 5.1931e-08 1.51223e-08
-1.5156e-07 -1.60689e-08 -3.3382e-09
-1.49905e-07 -1.70843e-08 -4.1196e-09
-6.41559e-08 8.12143e-08 1.99887e-08
-6.1615e-08 8.17612e-08 1.86508e-08
1.37054e-07 7.3127e-08 6.37236e-09
1.3559e-07 7.45637e-08 5.04483e-09
-1.27551e-07 5.09731e-08 1.62309e-08
-1.24081e-07 5.32214e-08 1.70719e-08
-5.58873e-08 8.23934e-08 -2.21138e-08
3.09755e-08 -5.37069e-08 1.46797e-08
2.57506e-07 1.77088e-08 6.64376e-09
2.59154e-07 1.71605e-08 7.57576e-09
-5.13344e-09 -6.86254e-09 1.51645e-09
-5.55036e-08 8.20361e-08 -2.33755e-08
-8.2966e-08 8.05433e-08 -3.13381e-08
-8.37635e-08 7.96825e-08 -3.06965e-08
-8.39613e-08 7.76293e-08 -3.14137e-08
-6.27961e-08 -4.90247e-08 -4.83798e-09
-6.80518e-08 -4.6571e-08 -4.36499e-09
-1.7882e-08 1.2349e-08 3.31345e-10
-6.84425e-08 -4.69978e-08 -5.38474e-09
-7.21549e-08 7.93243e-08 2.01618e-08
-4.72497e-08 -5.39166e-08 -1.55526e-09
-4.7745e-08 -5.38847e-08 -2.42193e-09
-7.28208e-08 7.77297e-08 2.00759e-08
3.39674e-08 9.40182e-08 -1.50145e-09
-3.81653e-09 1.20244e-07 -6.64785e-09
7.59115e-09 1.21367e-07 -6.29979e-09
2.6641e-08 9.22308e-08 -2.79944e-09
-7.33809e-08 7.64993e-08 2.3083e-08
-7.54895e-08 -5.08095e-08 -4.74232e-09
-7.60813e-08 -5.14359e-08 -5.90581e-09
-7.10966e-08 7.75067e-08 2.2378e-08
-7.08682e-08 7.97579e-08 2.28346e-08
8.32051e-08 -4.90596e-08 7.49951e-09
8.26453e-08 -4.95056e-08 6.2298e-09
-4.43881e-08 -6.73003e-08 -6.70848e-10
-4.63788e-08 -6.85921e-08 -1.925e-09
1.88832e-07 4.6917e-08 -2.93498e-08
1.8811e-07 4.50937e-08 -2.57054e-08
-5.60801e-08 9.14294e-08 1.41985e-08
-5.15096e-08 -6.67252e-08 -1.4059e-09
-1.30577e-07 3.47577e-08 -2.16875e-08
-1.31706e-07 3.48589e-08 -2.23812e-08
1.72655e-07 -2.80149e-08 -1.43134e-08
-4.33336e-08 1.95141e-10 1.59649e-09
-4.02452e-08 1.32372e-09 -1.91784e-09
-3.91395e-08 -7.13132e-10 -1.89343e-09
1.68609e-07 -2.83788e-08 -1.45463e-08
1.6764e-07 -2.76434e-08 -1.35729e-08
-1.5271e-08 5.40355e-08 3.44891e-09
-1.33946e-08 5.78123e-08 4.4687e-09
7.75361e-08 8.9935e-08 5.18302e-09
1.69933e-07 5.31737e-08 1.52968e-08
1.67136e-07 5.25747e-08 1.37841e-08
1.13363e-07 -2.47768e-08 -1.01578e-08
1.09925e-07 -2.27015e-08 -8.30722e-09
1.92779e-07 4.77144e-08 -1.9927e-09
1.95011e-07 4.67387e-08 -3.28177e-10
-3.44331e-08 1.07695e-07 7.84656e-09
-3.77567e-08 1.07808e-07 8.44177e-09
-3.50244e-08 1.1018e-07 6.36421e-09
4.34018e-08 1.03039e-07 -1.78513e-09
3.82445e-08 1.05523e-07 -5.66865e-10
1.82606e-08 9.89789e-08 -5.01247e-09
1.74533e-08 9.79871e-08 -5.56934e-09
3.74354e-08 1.08698e-07 -2.736e-09
3.05195e-08 1.1136e-07 -3.48276e-09
3.91832e-08 1.07558e-07 -1.47871e-09
-1.49828e-08 -6.08116e-08 3.67995e-09
-1.6418e-08 -6.23079e-08 2.37498e-09
1.05948e-08 -5.76389e-08 8.92217e-09
1.04372e-08 -5.84565e-08 8.1291e-09
3.60839e-08 1.05584e-07 5.88309e-10
-3.37862e-08 1.04017e-07 1.06008e-08
-3.26001e-08 1.05104e-07 8.58174e-09
-2.17998e-08 9.37103e-08 1.08316e-08
-2.07729e-08 9.6076e-08 1.0163e-08
-6.29878e-08 -2.57829e-08 6.28267e-10
-2.99645e-08 1.03133e-07 1.09207e-08
1.28253e-07 2.11875e-08 2.7965e-08
1.179e-07 1.979e-08 2.4892e-08
-5.87925e-08 8.95629e-08 1.50861e-08
6.45529e-08 1.18369e-07 -1.48462e-09
1.57298e-08 4.27681e-08 1.08708e-08
-2.50794e-08 1.02405e-07 9.40553e-09
-1.33185e-07 5.45018e-08 -3.25416e-08
-1.38409e-07 5.1345e-08 -3.15221e-08
2.30668e-07 2.93104e-08 -1.22053e-09
-1.33457e-07 5.32428e-08 -3.25584e-08
-7.11411e-09 1.22066e-07 -6.00028e-09
4.15589e-09 1.23607e-07 -5.81689e-09
-1.55408e-07 -1.27345e-08 -1.33372e-09
-1.56811e-07 -1.18881e-08 -2.18399e-09
1.98646e-07 4.7416e-08 3.31792e-08
1.93688e-07 5.13501e-08 3.58501e-08
1.02665e-07 8.23202e-08 -7.12625e-09
-1.30084e-07 5.16353e-08 2.09976e-08
-1.29823e-07 5.00275e-08 2.01824e-08
-6.52058e-08 2.55323e-08 -6.17867e-09
-6.55473e-08 2.71028e-08 -6.21631e-09
-1.30139e-07 5.13647e-08 1.98713e-08
7.33169e-08 8.92862e-08 1.50533e-08
1.24446e-09 6.10223e-08 -1.10836e-08
7.27766e-10 6.06926e-08 -1.06857e-08
6.34928e-08 9.21758e-08 1.45466e-08
1.18868e-07 -3.31352e-08 -1.00986e-08
1.22733e-07 -3.27449e-08 -8.65021e-09
2.88867e-07 3.27382e-09 2.1058e-09
2.91566e-07 2.27832e-09 2.1842e-09
8.30666e-09 9.98246e-08 -2.17277e-09
1.9224e-07 4.80442e-08 5.06974e-09
1.06602e-07 7.86097e-08 -2.36507e-08
1.01376e-07 8.33092e-08 -2.3992e-08
1.85638e-08 9.89408e-08 2.11675e-09
1.81861e-08 9.7557e-08 -2.65104e-10
1.93365e-08 1.00739e-07 -4.91552e-09
3.05772e-08 1.15154e-07 -4.00419e-09
-1.40452e-07 2.63763e-08 1.57009e-08
-1.39252e-07 2.64742e-08 1.54114e-08
1.28526e-07 7.67114e-08 -4.91673e-09
1.30614e-07 8.1432e-08 2.62715e-09
1.32411e-07 7.96148e-08 3.71096e-09
1.33335e-07 7.93662e-08 3.80001e-09
-1.40915e-08 8.45501e-08 8.77823e-10
9.79798e-08 8.51591e-08 4.91534e-09
1.58212e-07 6.56527e-08 2.74182e-09
1.60366e-07 6.53362e-08 2.51606e-09
8.93691e-08 8.73948e-08 6.43962e-09
-2.37297e-08 -7.49946e-08 8.33999e-10
-1.88417e-08 -7.30283e-08 -3.94087e-10
8.72607e-08 8.86004e-08 4.85154e-09
1.82057e-07 4.77582e-08 -1.11056e-08
-1.07607e-09 2.32878e-08 3.99281e-09
-1.37336e-09 2.05721e-08 3.3895e-09
1.80952e-07 4.71656e-08 -8.85661e-09
1.87699e-07 4.56043e-08 -1.00933e-08
1.90347e-07 4.38345e-08 -7.96767e-09
1.78838e-07 4.89725e-08 -1.02669e-08
-6.99083e-09 1.86585e-08 -3.21163e-09
-7.35936e-09 2.16097e-08 -3.77586e-09
6.6716e-08 1.17729e-07 -1.79064e-09
-3.9269e-09 -6.01386e-08 -3.69412e-09
2.29649e-09 -6.09676e-08 -3.77828e-09
5.90043e-08 1.19419e-07 -2.87101e-09
-4.72175e-08 1.12625e-07 -7.06495e-09
5.26747e-08 1.21381e-07 -2.05926e-09