# vtk DataFile Version 2.0
S, Created by Mohamad Ibrahim Cheikh
ASCII
DATASET UNSTRUCTURED_GRID
POINTS 23916 double
-148.662 60.7663 105.003
-151.427 58.44 105.837
-288.415 -66.8973 52.5791
-285.456 -66.2268 55.333
-353.84 14.2372 43.5049
6.67154 4.49128 131.903
-322.536 54.4852 41.4608
-299.682 -62.3348 50.4279
-321.936 52.5089 44.4724
-333.649 -38.1175 48.3933
-330.511 -37.6376 51.3164
-336.807 -34.6754 48.3034
-336.088 -31.4291 51.0592
62.9155 43.3479 -122.721
66.2129 45.8838 -121.581
-321.735 -52.5507 44.6007
-324.156 -49.6954 45.7132
-16.764 16.8446 130.789
-359 -4.96041 -40.2543
-359.605 -8.37607 -39.0079
-343.311 9.66446 53.8575
-142.389 -106.98 59.1365
-142.69 -105.249 62.0797
-299.529 -75.2486 -27.883
-302.236 -74.8394 -25.2877
-168.338 64.9602 -98.665
-164.838 66.7157 -98.2161
-344.466 12.6902 52.3045
-288.603 23.1082 81.8079
-265.049 77.0827 53.6788
-261.134 78.7243 53.6455
-172.485 55.181 103.618
-170.475 57.6303 102.688
-290.73 19.7201 81.773
-333.796 -11.246 60.468
-331.927 -8.02551 62.2151
-263.613 93.5474 12.8439
-243.64 -22.427 98.2521
-246.58 -24.3623 96.884
-198.557 -98.6124 -53.5984
-202.38 -98.8025 -51.4546
-198.558 -91.9073 64.4221
-201.793 -92.3638 62.5099
-189.923 -97.8598 58.5774
-217.443 -0.897174 107.863
-216.74 3.06277 107.997
-193.334 -98.1595 56.6791
-207.266 104.549 35.1286
-207.626 103.396 38.151
-283.198 -8.67345 86.7739
-282.221 -4.91144 87.4555
319.626 24.5929 -65.663
321.659 21.3183 -65.5922
-265.267 16.8733 92.3271
-266.767 13.3869 92.3693
15.1331 7.46945 -131.682
-305.401 -62.194 -46.2262
-303.19 -61.7717 -48.5172
-313.401 -62.4027 -38.7915
185.443 79.0448 83.4603
-310.609 -62.6176 -41.1245
21.3418 94.8613 -91.4854
-256.769 95.4826 -15.3359
-260.452 94.1823 -15.767
-310.963 -63.3822 39.5969
-313.442 -61.2967 40.4777
-24.3701 8.95349 -131.42
-153.732 115.978 32.8578
-156.467 114.913 34.9523
14.3187 14.0488 131.155
10.4965 15.9239 130.984
-246.011 24.0239 97.1451
-248.728 21.5198 96.8848
-318.19 36.2723 60.9332
-250.178 23.8361 -95.8802
-12.7102 18.7367 130.588
-252.603 26.424 -94.4125
-239.996 -24.2166 98.9231
-238.959 -27.9562 98.2421
303.66 -8.75285 77.8341
302.178 -5.58378 78.826
-308.639 52.8601 54.4733
-312.346 52.0708 52.6144
-134.859 113.832 47.3247
-132.511 112.93 50.2094
-254.343 68.4852 69.3809
-258.576 66.818 69.0903
-320.596 32.7198 61.3986
-353.527 10.3052 44.9026
-363.524 4.05623 -35.0485
-365.86 3.93603 -31.949
-175.109 -89.2975 -75.4708
-176.723 -86.8769 -77.7997
14.9117 -8.57875 131.618
-345.254 25.9969 -46.4159
-230.153 -70.1783 -77.5486
-232.634 -67.9565 -78.614
-215.201 76.741 76.5824
-211.728 76.2722 78.2187
-178.338 -82.434 -82.0658
-178.557 88.0983 75.8901
-350.646 23.8384 -42.4569
-264.715 80.3739 48.8351
-267.042 78.2226 50.74
-302.275 14.4535 -77.6442
65.6572 -4.53499 -129.906
-303.991 11.1993 -77.361
-342.797 -40.5736 37.296
-339.908 -42.6887 38.1619
-335.09 53.924 -27.7324
32.5305 19.714 -130.022
-331.871 56.0372 -28.2765
-348.041 26.3895 -43.5577
-219.632 102.478 -31.8802
-216.074 103.653 -31.0489
-214.653 105.054 -27.3238
-218.223 104.698 -25.1389
-152.133 -120.331 -10.5304
-155.542 -119.154 -16.2607
-353.718 25.7707 37.9711
-281.453 -81.1717 -33.7157
-277.973 -82.4897 -34.0491
-155.174 -119.697 -12.1941
37.5316 23.1682 129.286
-22.8586 6.55729 131.594
-19.6972 8.39418 131.552
-244.737 -31.4156 95.4146
74.5823 -11.5453 128.879
-19.3724 -1.41345 131.818
-247.145 -28.2442 95.646
-269.455 34.2893 85.7851
-280.475 -75.7028 45.4083
-265.343 36.1438 86.5891
-17.162 -4.2792 131.794
-264.471 39.1846 85.5873
-22.1752 3.43241 131.727
-273.502 78.8338 -45.2878
-273.986 80.5309 -41.8106
-203.41 51.9735 98.2706
-206.658 51.4425 97.7188
-266.291 81.6537 45.5522
-247.461 -88.0521 46.6213
-284.058 -71.4216 49.4386
-283.765 -73.8085 46.0208
-287.28 9.44131 -85.0335
-288.279 5.96332 -84.9346
296.154 59.3574 -56.2374
298.64 57.3645 -56.6947
299.533 54.7681 -58.6516
-32.3709 -22.6507 -129.548
-285.657 85.4788 -11.2713
-227.449 86.8312 59.5873
-229.675 84.8917 61.3117
-101.493 118.094 -47.0824
-365.197 14.9247 -29.5434
-287.541 85.0776 -7.95297
-375.704 -5.63283 10.5239
-375.917 -8.19743 7.46535
-285.406 86.1443 -5.51549
-361.585 35.6365 -12.1239
-359.529 38.467 -10.8995
168.496 98.3288 65.418
166.589 100.504 62.6524
162.304 101.268 62.7989
-357.795 -18.9844 -37.2879
-355.014 -19.9046 -39.9664
-108.427 115.498 -51.4282
-339.973 52.9555 21.6562
-342.04 50.9891 22.3784
-342.953 48.8341 25.2859
-341.658 48.2946 28.2894
130.081 -117.711 -38.6838
-320.742 -62.2489 -30.8864
-324.075 -60.625 -29.8395
127.599 -117.081 -41.5061
123.818 -117.606 -41.4216
-208.056 81.3033 74.257
-207.701 78.9928 76.8279
-344.169 -44.9138 30.0765
-341.08 -47.6466 30.1791
-105.775 116.987 -48.6642
-304.083 -69.6642 35.358
-256.294 -37.2675 -89.4039
-300.504 -70.6477 37.1095
-297.477 -72.9917 35.525
-326.661 -11.9132 -64.9448
-328.318 -14.51 -63.3745
-163.487 -108.003 -49.8698
-326.822 -18.1844 -63.3737
-223.128 -98.5383 40.2351
-295.271 56.5831 59.5671
-297.808 54.0223 60.3926
-321.379 -42.7815 -54.3007
-321.127 -45.6519 -52.1017
-317.556 -51.0524 -49.715
-314.769 -53.7798 -49.0036
-301.092 -43.1672 -66.7942
-305.196 -41.7831 -65.3791
-311.553 35.9378 65.1824
-311.906 31.8173 67.0895
-221.366 102.067 31.7323
-224.866 101.103 31.8051
-282.191 2.94898 -87.5553
-280.462 -0.415802 -88.2812
-285.381 15.902 -84.8536
-284.088 19.0663 -84.7326
-199.335 79.0645 -79.4234
-198.188 76.6047 -82.1392
-280.061 -62.3958 -62.6741
-276.168 -63.5708 -63.6016
-168.498 -109.108 -45.2045
-147.039 -120.309 17.3974
-245.65 -66.6703 -74.7738
-311.143 74.3232 -6.89824
-271.675 57.8779 70.9782
-312.47 73.1724 -10.7706
-167.559 -107.904 -48.4092
-162.419 -117.463 19.9205
62.7234 8.66037 129.874
59.6168 10.5291 129.915
-159.322 -118.46 16.8362
-53.9623 -118.283 -55.4675
-240.005 55.8822 85.1403
-239.673 59.3055 82.91
-223.151 -88.0794 -59.7446
-220.671 -86.9273 -62.4962
-349.284 19.254 46.0088
-243.538 54.0132 85.1182
53.1982 78.6594 -104.356
-8.48011 -15.8864 131.007
-233.65 61.0613 -83.7362
-231.793 59.0725 -85.7701
-361.657 5.11578 37.2075
38.5876 -14.3084 -130.526
49.5331 80.405 -103.241
-222.647 -52.898 92.5026
-222.722 -55.7117 90.8132
229.862 -101.026 27.3664
225.852 -102.21 27.0555
224.567 -103.363 23.7891
-96.1721 121.986 -37.5632
-285.734 81.4371 -28.2186
-287.591 79.5904 -31.0376
-96.2962 120.674 -41.5505
-317.064 -11.8861 -70.5324
335.636 29.676 52.4535
-39.0131 5.88944 -131.16
-42.9676 6.60185 -130.975
-306.294 67.218 37.6806
332.564 25.1633 57.0102
335.401 26.6678 54.2235
-274.476 -24.8689 87.0747
-271.335 -27.1898 87.5844
-209.712 -10.5259 109.219
-210.072 -13.952 108.749
-109.569 103.557 72.3194
-112.199 104.577 70.3306
-374.187 -16.6901 -1.79939
-289.786 -77.7202 -33.2017
-287.582 -79.9645 -30.0713
-217.252 -95.3419 50.5508
-372.101 -21.6316 2.1172
-372.777 -20.2009 -1.63782
-256.415 -96.2101 10.8613
-265.012 -93.6026 8.00591
-259.312 -95.0447 12.5687
-263.104 -93.9256 11.2655
11.7614 15.4839 -131.024
-347.79 -25.0423 44.5868
-258.091 39.4253 87.8319
-254.5 41.3698 88.2196
-355.161 44.1764 -5.39608
-357.388 42.157 -3.03411
-241.063 -71.8259 -71.7666
4.71278 1.88716 131.976
-348.732 -21.7464 -45.4078
-350.395 -17.7492 -45.5776
-328.489 57.5243 30.0675
-162.939 76.1085 -91.5482
-245.076 -44.3595 -90.0154
-241.616 -44.9088 -90.884
-158.378 80.9286 -88.3378
-159.42 78.0817 -90.6405
-291.163 -74.8371 38.0037
-294.195 -73.0607 38.5967
-287.853 -75.2138 40.2785
-326.061 -28.4846 59.9697
-326.419 -34.4463 56.5029
-324.879 -31.7415 59.1132
-300.388 -66.6614 43.9659
-303.53 -65.1786 43.5455
-305.78 -65.5862 40.9268
338.411 -11.6732 -57.1556
340.911 -9.33671 -55.7489
-353.119 -44.0295 -14.804
-309.153 70.1062 28.4214
-355.808 -41.0083 -15.578
-303.36 65.1576 43.7216
-306.668 62.8724 44.2385
-297.736 20.1485 -78.5172
-295.427 22.1167 -79.0534
-335.956 -0.141091 -60.0472
-334.427 3.19264 -60.9998
-280.698 77.3827 -42.3019
-277.806 79.5607 -40.5634
-312.025 70.9439 21.7058
-307.553 74.3835 17.622
-272.55 89.3588 18.5597
-308.971 72.7356 21.117
-347.773 10.1717 -50.13
-350.861 9.80249 -47.5007
-351.941 13.1311 -45.6843
294.671 51.4696 64.3747
298.156 50.4689 63.1917
-52.2155 78.4856 104.548
-276.143 -71.3408 54.759
299.653 47.0197 64.9607
-275.168 -60.9049 -66.6668
-330.209 61.2977 17.806
-331.938 59.2108 20.6975
-272.287 -60.5244 -68.4381
-269.293 -62.6628 -67.9624
-313.641 71.1144 -17.977
-310.061 73.1324 -17.477
-347.969 48.2988 -16.3424
-309.25 74.3334 -13.7789
-123.893 -107.141 63.7624
-120.866 -108.228 62.627
-337.203 58.5567 -8.60415
-336.056 58.1854 -14.5579
-337.856 57.5046 -11.9247
-334.417 -6.77813 -60.7129
-331.899 -9.18684 -62.0726
-333.503 -2.82325 -61.6345
-327.68 29.1462 58.5547
-327.301 25.2388 60.5932
-295.121 61.2231 -54.8863
-298.621 60.7356 -53.0805
-198.971 100.702 -49.3568
-196.247 100.06 -51.9312
-158.522 -55.3629 -106.218
-159.139 -58.517 -104.399
-163.029 -59.6053 -103.04
-173.114 70.9536 93.3838
23.3013 130.76 -16.1028
20.306 131.102 -13.6278
-18.8987 1.62495 131.824
-289.689 11.8936 -83.7152
-292.796 11.5255 -82.4334
-241.844 -68.6917 -74.4624
-274.671 -61.0173 66.8149
26.0331 131.021 -13.2082
-106.033 -96.2146 -82.4031
-303.96 51.5333 58.7943
-304.479 48.6312 60.8998
-203.874 -98.1041 52.0653
-204.643 -99.5432 48.8662
21.9294 -71.0143 -111.005
25.4266 -70.3415 -111.341
-106.961 -98.7268 -79.2234
-364.384 -25.8644 -22.3443
-333.992 -47.5877 -38.7585
-331.365 -51.2143 -36.85
-366.631 -23.9249 -19.868
-348.354 -7.66469 -50.0825
-348.563 45.6769 -21.5133
-309.71 6.47237 75.0904
-310.623 9.85213 74.2565
-321.339 -43.1645 54.0257
-345.022 -8.01732 -52.7786
-138.46 39.15 116.379
-134.946 40.7527 116.335
-343.432 -4.96838 -54.3986
-333.394 -46.101 41.1136
-42.6741 -0.87414 131.15
-203.546 103.855 39.57
-200.265 105.129 38.2318
-194.163 -81.2309 -78.8035
-325.165 32.3208 58.6049
-200.725 -80.4472 -77.5851
-197.249 -79.4279 -79.698
-345.725 14.1033 -50.9064
14.0394 -83.2236 -102.341
-333.944 36.7724 -49.178
-333.948 40.0093 -46.5794
2.01804 129.19 -27.0825
6.72677 130.205 -21.5689
[...]
POINT_DATA 23916
VECTORS F double
2.72925e-07 3.34661e-07 -1.46364e-07
2.66694e-07 3.41707e-07 -1.41965e-07
-3.65938e-07 2.31543e-07 4.88417e-08
-3.67009e-07 2.36164e-07 5.08558e-08
9.68933e-08 3.70209e-07 -2.46666e-08
-2.52139e-07 -4.45672e-08 3.07895e-09
3.52227e-07 3.01949e-07 -6.13322e-08
-3.4929e-07 2.43465e-07 4.68157e-08
3.33925e-07 2.99446e-07 -5.76075e-08
-2.42205e-07 3.01652e-07 3.31539e-08
-2.41873e-07 3.06022e-07 3.37248e-08
-2.28766e-07 3.15523e-07 3.12121e-08
-2.06015e-07 3.14867e-07 2.77915e-08
-9.64336e-09 -2.09344e-07 -7.45507e-08
2.55509e-09 -2.20096e-07 -8.28924e-08
-3.16462e-07 2.67166e-07 3.52968e-08
-3.04004e-07 2.78007e-07 3.83e-08
-1.92702e-07 3.81409e-08 -7.93615e-09
-1.79351e-08 3.69056e-07 -2.58967e-08
-4.65714e-08 3.72248e-07 -2.73704e-08
5.76332e-08 3.551e-07 -1.87416e-08
-5.40535e-07 1.0776e-07 3.55962e-08
-5.34971e-07 1.09953e-07 3.58676e-08
-4.03888e-07 2.12634e-07 -4.26518e-08
-4.0095e-07 2.10797e-07 -3.71597e-08
3.69203e-07 3.56694e-07 1.57723e-07
3.7017e-07 3.5548e-07 1.65407e-07
8.00315e-08 3.62523e-07 -2.34254e-08
1.2201e-07 3.38446e-07 -4.29023e-08
4.82024e-07 2.66413e-07 -9.11745e-08
4.84384e-07 2.63461e-07 -9.79502e-08
2.58729e-07 3.60489e-07 -1.39247e-07
2.67649e-07 3.53237e-07 -1.43844e-07
1.02017e-07 3.49335e-07 -3.9838e-08
-8.37771e-08 3.487e-07 8.23268e-09
-6.4058e-08 3.41932e-07 2.26678e-09
6.19231e-07 2.18718e-07 -3.70008e-08
-1.64834e-07 3.17267e-07 2.23761e-08
-1.64621e-07 3.11501e-07 2.70341e-08
-4.92398e-07 1.5896e-07 -6.91355e-08
-4.90855e-07 1.56422e-07 -6.39937e-08
-4.79761e-07 1.66614e-07 5.66631e-08
-4.78308e-07 1.63826e-07 5.30271e-08
-5.0379e-07 1.49604e-07 4.99504e-08
-7.09694e-08 3.49508e-07 -1.46086e-08
-3.61786e-08 3.45112e-07 -1.86765e-08
-5.03013e-07 1.47859e-07 4.60053e-08
7.14777e-07 2.04351e-07 -9.18549e-08
6.95022e-07 2.05052e-07 -9.26391e-08
-7.51184e-08 3.36744e-07 3.64447e-09
-5.04318e-08 3.32419e-07 -1.25622e-09
5.2571e-08 -1.32367e-07 -1.82466e-08
4.68363e-08 -1.36736e-07 -1.63214e-08
7.14515e-08 3.43633e-07 -3.76669e-08
4.69929e-08 3.53073e-07 -3.4554e-08
-2.12456e-07 -8.72817e-08 -7.94028e-09
-3.32711e-07 2.42398e-07 -5.70137e-08
-3.33886e-07 2.46707e-07 -5.86547e-08
-3.42902e-07 2.42949e-07 -5.16505e-08
1.50406e-07 -1.7756e-07 1.27251e-07
-3.44417e-07 2.45334e-07 -5.50708e-08
3.81363e-07 -4.53134e-08 -3.60936e-08
6.32429e-07 2.13476e-07 3.273e-08
6.28796e-07 2.18836e-07 3.55092e-08
-3.61402e-07 2.4063e-07 3.76948e-08
-3.55312e-07 2.48647e-07 3.96821e-08
-2.07827e-07 4.75917e-08 7.9606e-09
8.42217e-07 1.62548e-07 -9.13084e-08
8.23508e-07 1.70391e-07 -1.08854e-07
-2.05672e-07 -5.92813e-08 9.09921e-09
-2.00844e-07 -4.75276e-08 7.74853e-09
9.5231e-08 3.49364e-07 -5.68712e-08
9.13418e-08 3.50808e-07 -4.92106e-08
2.22559e-07 3.19753e-07 -4.80539e-08
1.45471e-07 3.60355e-07 4.31135e-08
-1.87034e-07 2.84401e-08 -6.30927e-09
1.56609e-07 3.67103e-07 5.14447e-08
-1.65577e-07 3.1531e-07 2.80078e-08
-1.91998e-07 3.06448e-07 3.00287e-08
-7.97288e-08 -1.5219e-07 2.0968e-08
-7.48554e-08 -1.50273e-07 2.44877e-08
3.28223e-07 3.05809e-07 -6.9072e-08
3.24564e-07 3.00431e-07 -6.14298e-08
8.19438e-07 1.77482e-07 -1.41017e-07
8.16158e-07 1.78318e-07 -1.37357e-07
4.02997e-07 2.92389e-07 -1.07742e-07
4.01143e-07 2.92179e-07 -9.8763e-08
2.00391e-07 3.32896e-07 -4.92959e-08
6.31318e-08 3.66438e-07 -2.32414e-08
4.5994e-08 3.869e-07 -1.36316e-08
4.37615e-08 3.85401e-07 -1.38773e-08
-4.75396e-07 1.76994e-07 -7.43762e-08
-4.6187e-07 1.84582e-07 -7.76708e-08
-3.04259e-07 -6.97297e-08 -3.24518e-10
2.01965e-07 3.491e-07 1.16011e-08
-3.65722e-07 2.30838e-07 -7.60116e-08
-3.57277e-07 2.40368e-07 -7.83424e-08
4.56945e-07 2.94634e-07 -1.38038e-07
4.61956e-07 3.04029e-07 -1.43369e-07
-4.46294e-07 1.97126e-07 -7.92714e-08
5.42979e-07 2.834e-07 -1.72581e-07
1.90497e-07 3.53655e-07 5.94681e-09
5.06804e-07 2.56506e-07 -8.58249e-08
4.87803e-07 2.66254e-07 -9.61526e-08
1.00705e-07 3.36545e-07 1.46489e-08
-2.24481e-07 -2.08855e-07 -6.5997e-09
8.23886e-08 3.44855e-07 1.02866e-08
-2.71543e-07 3.05861e-07 2.71759e-08
-2.76954e-07 2.98199e-07 3.15566e-08
3.83872e-07 3.01434e-07 1.82465e-08
-1.48866e-07 -1.3924e-07 -2.56716e-08
3.90336e-07 2.95296e-07 2.43201e-08
2.01652e-07 3.47405e-07 1.3206e-08
7.02651e-07 2.12017e-07 8.88682e-08
7.06965e-07 2.0568e-07 8.42931e-08
7.30844e-07 2.0294e-07 7.73296e-08
7.2137e-07 1.99365e-07 6.36588e-08
-5.68908e-07 8.95403e-08 -1.69199e-08
-5.64033e-07 9.32257e-08 -2.25887e-08
1.78394e-07 3.58729e-07 -4.00069e-08
-4.20941e-07 1.99436e-07 -4.99371e-08
-4.2191e-07 1.95516e-07 -5.19679e-08
-5.67111e-07 9.21957e-08 -2.145e-08
-1.57457e-07 -1.18278e-07 2.6792e-08
-2.39489e-07 4.70865e-08 -7.43942e-09
-2.34568e-07 4.02396e-08 -6.86752e-09
-2.04083e-07 2.9857e-07 3.42172e-08
-2.76765e-07 -1.85467e-07 2.99443e-09
-2.75995e-07 3.08332e-08 -4.63523e-09
-1.8844e-07 3.12065e-07 3.25391e-08
1.78642e-07 3.32237e-07 -6.41004e-08
-4.03288e-07 2.10638e-07 4.61914e-08
1.79004e-07 3.3849e-07 -7.41337e-08
-2.89019e-07 1.97098e-08 -3.96774e-09
2.06383e-07 3.3189e-07 -7.38709e-08
-2.56284e-07 4.27469e-08 -6.39582e-09
5.19205e-07 2.57906e-07 6.50523e-08
5.3484e-07 2.58272e-07 6.83571e-08
2.65591e-07 3.60579e-07 -1.23398e-07
2.64712e-07 3.516e-07 -1.16555e-07
5.16813e-07 2.57407e-07 -9.15215e-08
-4.54731e-07 1.82015e-07 4.82604e-08
-3.86086e-07 2.20707e-07 4.72548e-08
-4.00524e-07 2.17729e-07 4.68366e-08
7.36953e-08 3.40917e-07 7.36974e-09
4.5802e-08 3.47252e-07 5.34766e-09
1.32587e-07 -1.16517e-07 -3.74974e-08
1.30587e-07 -1.20072e-07 -3.72746e-08
1.20765e-07 -1.22836e-07 -3.91942e-08
-3.3255e-07 4.8713e-08 1.65628e-09
5.66658e-07 2.33468e-07 1.23045e-08
5.48256e-07 2.55106e-07 -1.15529e-07
5.33361e-07 2.64532e-07 -1.21654e-07
8.90967e-07 1.62417e-07 1.7224e-07
1.32524e-07 3.84889e-07 -6.12937e-09
5.58697e-07 2.31988e-07 8.63935e-09
-5.28331e-08 4.07749e-07 -1.26629e-08
-7.44924e-08 4.06905e-07 -1.24178e-08
5.7031e-07 2.31372e-07 6.22601e-10
2.84482e-07 3.5254e-07 -2.52286e-09
3.01769e-07 3.43252e-07 -7.27145e-09
2.79277e-07 -1.45653e-07 1.30861e-07
3.0313e-07 -1.36658e-07 1.20541e-07
3.02491e-07 -1.37814e-07 1.2652e-07
-1.24174e-07 3.52547e-07 -3.36167e-08
-1.26465e-07 3.53148e-07 -3.83476e-08
8.52953e-07 1.83804e-07 1.92623e-07
3.66993e-07 3.0407e-07 -3.81729e-08
3.57079e-07 3.11235e-07 -4.095e-08
3.37401e-07 3.12918e-07 -4.4064e-08
3.34266e-07 3.13459e-07 -4.08693e-08
-3.72493e-07 -6.19323e-08 3.51005e-08
-3.51272e-07 2.45255e-07 -4.76892e-08
-3.48779e-07 2.49222e-07 -4.25844e-08
-3.78567e-07 -6.43095e-08 3.892e-08
-3.79577e-07 -6.23624e-08 3.81484e-08
4.98122e-07 2.93107e-07 -1.50049e-07
4.70684e-07 2.92615e-07 -1.45071e-07
-3.01354e-07 2.9675e-07 2.09508e-08
-3.09228e-07 2.85807e-07 2.33554e-08
8.8804e-07 1.68975e-07 1.69893e-07
-3.88691e-07 2.25034e-07 3.41141e-08
-2.07392e-07 2.99228e-07 -5.19427e-08
-3.9032e-07 2.24485e-07 4.03996e-08
-3.9809e-07 2.15846e-07 3.53687e-08
-5.55655e-08 3.32896e-07 -2.68481e-08
-6.99004e-08 3.37274e-07 -3.28861e-08
-5.34693e-07 1.26794e-07 -5.99945e-08
-9.48489e-08 3.26098e-07 -3.36851e-08
-4.90171e-07 1.52351e-07 4.03167e-08
3.43504e-07 2.96925e-07 -7.35835e-08
3.31029e-07 3.07242e-07 -7.49805e-08
-2.36447e-07 2.90039e-07 -5.71807e-08
-2.59066e-07 2.87143e-07 -5.61068e-08
-2.86623e-07 2.74111e-07 -5.73386e-08
-2.96179e-07 2.62911e-07 -5.56153e-08
-2.2845e-07 2.90012e-07 -6.13486e-08
-2.27477e-07 2.90055e-07 -5.5364e-08
2.21096e-07 3.26459e-07 -5.06085e-08
1.80955e-07 3.27351e-07 -5.22476e-08
6.83497e-07 2.06585e-07 -8.07149e-08
6.81849e-07 2.08962e-07 -7.40439e-08
2.99586e-08 3.49276e-07 -5.76258e-11
8.74815e-09 3.38348e-07 -4.99641e-09
1.12247e-07 3.52258e-07 1.97958e-08
1.35641e-07 3.44391e-07 2.18157e-08
5.03809e-07 3.18153e-07 1.61908e-07
4.87298e-07 3.1864e-07 1.5322e-07
-3.28833e-07 2.47155e-07 -6.61581e-08
-3.29212e-07 2.45659e-07 -7.05279e-08
-5.3575e-07 1.24616e-07 -5.62895e-08
-5.6861e-07 8.56985e-08 4.26279e-09
-3.50534e-07 2.42463e-07 -7.51967e-08
5.00378e-07 2.56507e-07 4.7389e-10
3.30675e-07 3.08936e-07 -9.69575e-08
4.89023e-07 2.56128e-07 3.10587e-09
-5.34419e-07 1.26796e-07 -5.61577e-08
-5.60343e-07 9.63323e-08 8.68769e-09
-2.09948e-07 -1.73641e-07 2.39929e-08
-2.08301e-07 -1.69203e-07 2.54161e-08
-5.64922e-07 9.34954e-08 3.34007e-09
-5.57347e-07 3.72093e-08 -1.29634e-08
3.04847e-07 3.22441e-07 -1.06425e-07
3.40426e-07 3.19453e-07 -1.08022e-07
-4.39896e-07 1.86537e-07 -7.38458e-08
-4.41365e-07 1.91109e-07 -7.50178e-08
1.26183e-07 3.62239e-07 -3.43093e-08
3.0252e-07 3.23282e-07 -9.91724e-08
2.26967e-07 -1.65921e-07 -1.10899e-07
-3.33218e-07 -9.95139e-09 -3.84739e-09
3.86185e-07 3.38219e-07 1.14705e-07
3.75662e-07 3.35307e-07 1.06642e-07
3.41151e-08 3.82887e-07 -1.20433e-08
-2.82548e-07 -1.47514e-07 5.944e-09
2.33799e-07 -1.53119e-07 -1.05517e-07
-3.14029e-07 2.60284e-07 5.63062e-08
-3.31039e-07 2.5797e-07 5.88595e-08
-2.67379e-07 -7.82412e-08 -1.38779e-08
-2.6894e-07 -7.61063e-08 -1.26522e-08
-2.73846e-07 -7.55315e-08 -1.1687e-08
9.60938e-07 1.38827e-07 1.49629e-07
5.41823e-07 2.47374e-07 4.22083e-08
5.25424e-07 2.51437e-07 4.87087e-08
9.40892e-07 1.42677e-07 1.47405e-07
-5.13774e-08 3.28886e-07 -2.71481e-08
3.28703e-08 -1.31558e-07 4.86799e-08
-2.11337e-07 9.78595e-08 1.20902e-08
-2.09937e-07 1.11421e-07 1.40482e-08
4.26465e-07 2.71163e-07 -5.93067e-08
1.88161e-08 -1.33651e-07 4.55537e-08
2.17789e-08 -1.3175e-07 4.83038e-08
-1.66262e-07 3.12951e-07 2.52159e-08
-1.70778e-07 3.0671e-07 3.04416e-08
-1.19825e-07 3.2845e-07 3.48592e-09
-1.4519e-07 3.29061e-07 7.87958e-09
6.8627e-07 2.36627e-07 -2.11539e-07
6.81557e-07 2.31039e-07 -2.10422e-07
-1.41748e-07 3.90817e-07 -1.61532e-08
-4.04549e-07 2.06862e-07 -5.19396e-08
-4.18915e-07 2.01071e-07 -4.41983e-08
-4.7995e-07 1.59934e-07 4.91104e-08
-1.79975e-07 3.7786e-07 -1.19336e-08
-1.67398e-07 3.79398e-07 -1.48433e-08
-4.82092e-07 1.57944e-07 5.66524e-09
-4.72232e-07 1.63999e-07 3.61471e-09
-4.78386e-07 1.61407e-07 1.21971e-08
-4.77385e-07 1.64712e-07 8.27947e-09
-1.76995e-07 -7.48156e-08 -1.07867e-08
-1.76538e-07 3.40448e-07 2.2622e-08
2.07258e-07 3.35023e-07 -7.58199e-08
2.09783e-07 3.34176e-07 -8.26147e-08
3.385e-07 3.32123e-07 -8.71216e-09
3.24708e-07 3.35817e-07 -1.67263e-08
-3.74135e-07 2.2952e-07 -7.58497e-08
-2.62836e-07 -3.77054e-08 1.68834e-09
-1.32451e-07 3.37501e-07 -3.70961e-08
-1.04671e-07 3.5054e-07 -3.79923e-08
3.86183e-07 2.95454e-07 -4.87102e-08
4.64672e-07 3.39553e-07 1.81033e-07
-2.46599e-07 2.86017e-07 -5.87504e-08
-2.46005e-07 2.93092e-07 -6.47565e-08
5.05439e-07 3.26764e-07 1.88412e-07
4.64165e-07 3.38017e-07 1.91233e-07
-4.04084e-07 2.11485e-07 3.74301e-08
-4.00784e-07 2.18659e-07 3.98935e-08
-4.06027e-07 2.13054e-07 4.25878e-08
-1.82854e-07 3.1875e-07 2.96818e-08
-2.19924e-07 3.09686e-07 3.32479e-08
-2.06198e-07 3.09315e-07 2.73479e-08
-3.70172e-07 2.32928e-07 4.35263e-08
-3.68971e-07 2.37073e-07 3.99739e-08
-3.68765e-07 2.34696e-07 3.87876e-08
-2.31381e-08 -1.28529e-07 9.47692e-09
-1.92e-08 -1.30235e-07 7.43598e-09
-2.95566e-07 2.99507e-07 -2.76343e-08
4.57235e-07 2.67998e-07 -5.21453e-08
-2.82476e-07 3.12041e-07 -3.15275e-08
4.08482e-07 2.77382e-07 -6.63814e-08
4.00086e-07 2.8711e-07 -6.84885e-08
1.43253e-07 3.4398e-07 2.17629e-08
1.46858e-07 3.43441e-07 2.88919e-08
1.64157e-08 3.5205e-07 -1.20722e-08
4.08248e-08 3.42637e-07 -9.46977e-09
5.16278e-07 2.64521e-07 6.44628e-08
5.30152e-07 2.55038e-07 5.57019e-08
4.67482e-07 2.65039e-07 -4.35094e-08
4.92137e-07 2.57797e-07 -3.66004e-08
5.85576e-07 2.28294e-07 -4.6358e-08
4.72913e-07 2.58403e-07 -4.28999e-08
9.19595e-08 3.60883e-07 -4.88239e-09
8.91878e-08 3.57374e-07 -6.90679e-09
1.1318e-07 3.63833e-07 -2.17331e-09
6.76803e-08 -1.38807e-07 7.30513e-08
6.79942e-08 -1.33819e-07 6.75993e-08
2.73287e-07 2.20195e-07 -1.48593e-07
-3.86827e-07 2.21433e-07 4.96584e-08
5.50287e-08 -1.39219e-07 6.96923e-08
-3.15647e-07 2.47192e-07 -6.63211e-08
4.19218e-07 2.8578e-07 -3.19916e-08
4.00352e-07 2.88724e-07 -3.98828e-08
-3.17858e-07 2.54825e-07 -7.05303e-08
-3.22935e-07 2.4576e-07 -6.99352e-08
4.82419e-07 2.65044e-07 1.80147e-08
4.88667e-07 2.5745e-07 1.58842e-08
3.5489e-07 3.14686e-07 4.88727e-09
5.00847e-07 2.57767e-07 1.4353e-08
-5.45748e-07 9.58635e-08 3.12533e-08
-5.48126e-07 9.05902e-08 2.70401e-08
4.15041e-07 2.92405e-07 -1.44115e-09
4.12388e-07 2.92432e-07 3.30357e-09
4.05295e-07 2.91418e-07 -5.65161e-10
-2.71505e-08 3.48326e-07 -2.05792e-08
-3.66269e-08 3.3957e-07 -2.62804e-08
3.79405e-09 3.43028e-07 -1.8227e-08
1.81847e-07 3.35735e-07 -4.25244e-08
1.50265e-07 3.32996e-07 -3.93281e-08
4.08964e-07 2.9851e-07 6.37517e-08
4.04634e-07 2.92214e-07 5.56564e-08
6.89158e-07 2.31816e-07 1.32836e-07
6.95249e-07 2.37578e-07 1.36095e-07
-3.60534e-07 2.47104e-07 -6.29188e-08
-3.73614e-07 2.45566e-07 -6.79176e-08
-3.73063e-07 2.40586e-07 -6.6906e-08
3.9507e-07 3.31992e-07 -1.62584e-07
1.29989e-06 -1.954e-08 7.15524e-08
1.26378e-06 -2.11491e-08 2.70438e-08
-2.62875e-07 2.95121e-08 -4.97766e-09
8.3798e-08 3.48667e-07 1.40337e-08
8.29406e-08 3.37214e-07 1.10798e-08
-3.52903e-07 2.35424e-07 -7.68514e-08
-3.34873e-07 2.46986e-07 5.70128e-08
1.30449e-06 -2.51481e-08 6.54876e-08
-5.20921e-07 1.10653e-07 -4.71343e-08
3.18233e-07 3.06562e-07 -6.72751e-08
2.92614e-07 3.09291e-07 -6.78695e-08
-4.98127e-07 1.50415e-07 4.46137e-08
-5.01988e-07 1.48435e-07 4.49925e-08
-4.37273e-07 -7.35442e-08 3.64729e-08
-4.34833e-07 -8.09109e-08 3.8959e-08
-5.25653e-07 1.08655e-07 -4.85155e-08
-1.87561e-07 3.55671e-07 -3.72293e-08
-2.80096e-07 2.83709e-07 -5.28328e-08
-2.99483e-07 2.71033e-07 -4.69754e-08
-1.78665e-07 3.60677e-07 -3.06778e-08
-3.36711e-08 3.51778e-07 -2.51642e-08
3.39575e-07 3.22495e-07 1.11215e-08
1.78529e-08 3.39343e-07 -2.02339e-08
4.38897e-08 3.46703e-07 -2.35214e-08
-2.62098e-07 2.86128e-07 3.77455e-08
-3.33561e-08 3.55009e-07 -2.72322e-08
9.60386e-08 3.37268e-07 -9.94681e-08
9.5098e-08 3.41161e-07 -1.06005e-07
-1.32978e-08 3.49198e-07 -2.16159e-08
-2.91623e-07 2.86161e-07 3.13517e-08
-2.6034e-07 1.01095e-07 -9.69728e-09
7.01517e-07 2.09815e-07 -1.0888e-07
7.10393e-07 2.01689e-07 -9.90159e-08
-4.30697e-07 2.01195e-07 -7.74711e-08
1.973e-07 3.2514e-07 -4.52899e-08
-4.23012e-07 2.03862e-07 -7.73951e-08
-4.25565e-07 2.10202e-07 -8.0539e-08
1.1776e-07 3.49748e-07 -1.02024e-09
-4.63336e-07 -5.21856e-08 3.46553e-08
2.60137e-07 3.24466e-07 2.63455e-08
2.87754e-07 3.25247e-07 2.67913e-08
1.16298e-06 2.22608e-08 1.168e-07
1.20858e-06 7.79246e-09 9.3189e-08
-4.31642e-07 1.99424e-07 -1.12624e-08
-4.26737e-07 1.99731e-07 -1.3362e-08
4.66165e-07 2.81418e-07 7.62126e-08
9.38378e-07 1.23747e-07 -2.25738e-07
9.43039e-07 1.25239e-07 -2.10232e-07
4.69849e-07 2.88271e-07 8.72227e-08
1.16517e-06 1.7451e-08 1.18434e-07
-4.81288e-07 1.6219e-07 3.34246e-08
-4.24915e-07 -7.67263e-08 -5.16526e-08
-4.18022e-07 -8.13545e-08 -5.51632e-08
-3.11607e-07 2.60053e-07 5.54935e-08
-3.05685e-07 2.62074e-07 5.08849e-08
4.1647e-07 2.8347e-07 3.97022e-08
4.11701e-07 2.88179e-07 3.16226e-08
-4.81134e-07 1.58967e-07 3.55599e-08
-4.71091e-07 1.6605e-07 3.87704e-08
-2.92233e-07 2.66709e-07 -6.62568e-08
8.31349e-09 -2.30973e-07 1.05029e-07
1.02629e-06 1.12836e-07 8.16031e-08
1.03674e-06 1.14605e-07 1.00122e-07
-1.35116e-07 -1.55751e-07 3.91609e-08
-2.92135e-07 2.65235e-07 -7.01929e-08
-4.04943e-07 2.28468e-07 -7.79203e-08
-4.10168e-07 2.24188e-07 -7.50118e-08
-4.08883e-07 2.18791e-07 -7.60822e-08
-2.0046e-07 -1.88329e-07 -1.54609e-08
-2.15517e-07 -1.82922e-07 -1.71038e-08
-1.81258e-07 -1.57085e-07 -2.07912e-08
-2.16405e-07 -1.8406e-07 -2.05301e-08
-3.33311e-07 2.5216e-07 5.42247e-08
-1.5461e-07 -1.86766e-07 5.25239e-09
-1.55886e-07 -1.86789e-07 2.09745e-09
-3.32053e-07 2.46378e-07 5.2842e-08
1.89393e-08 3.40712e-07 -8.41983e-09
-1.3133e-07 3.72872e-07 -3.1988e-08
-1.01497e-07 3.85071e-07 -3.14712e-08
-2.8819e-09 3.30455e-07 -1.29747e-08
-3.49555e-07 2.38245e-07 5.95531e-08
-1.71126e-07 -1.31738e-07 -1.0894e-08
-1.7245e-07 -1.34616e-07 -1.43674e-08
-3.40071e-07 2.42946e-07 5.86182e-08
-3.41295e-07 2.49197e-07 6.12645e-08
1.55313e-07 -9.07257e-08 4.58489e-08
1.53268e-07 -8.95426e-08 4.01952e-08
-8.47107e-08 -1.27846e-07 1.70552e-08
-8.51769e-08 -1.26989e-07 1.50612e-08
5.6301e-07 2.70541e-07 -2.01892e-07
5.60928e-07 2.63807e-07 -1.92059e-07
-2.75409e-07 2.87394e-07 3.43774e-08
-9.46873e-08 -1.24916e-07 1.49481e-08
-4.97019e-07 1.78671e-08 3.28081e-09
-5.02396e-07 2.13529e-08 1.54887e-09
5.91612e-07 -1.19387e-07 -1.50197e-07
-2.69177e-07 -1.41074e-07 8.40901e-09
-2.38394e-07 -1.81057e-07 -3.62446e-09
-2.32001e-07 -1.94101e-07 -6.13105e-09
5.77161e-07 -1.28628e-07 -1.55063e-07
5.68953e-07 -1.21854e-07 -1.48315e-07
-2.26177e-07 -4.20871e-09 1.98469e-09
-2.21818e-07 7.0403e-09 3.11544e-09
1.77162e-07 3.39121e-07 2.20791e-08
5.72388e-07 2.85216e-07 1.46594e-07
5.62355e-07 2.85209e-07 1.39386e-07
3.55392e-07 -1.91633e-07 -1.62079e-07
3.37224e-07 -1.86359e-07 -1.51632e-07
6.73584e-07 2.01246e-07 -3.87185e-08
6.8896e-07 1.97468e-07 -2.03598e-08
-2.19017e-07 3.34423e-07 1.68245e-08
-2.27843e-07 3.33735e-07 1.93592e-08
-2.20819e-07 3.39079e-07 1.26265e-08
2.61387e-08 3.60927e-07 -1.58949e-08
4.46886e-09 3.6879e-07 -1.10108e-08
-3.70157e-08 3.40055e-07 -2.29479e-08
-3.77624e-08 3.33746e-07 -2.39277e-08
1.70981e-08 3.65626e-07 -1.92774e-08
-1.1112e-08 3.70115e-07 -2.13149e-08
6.60936e-09 3.72094e-07 -1.3553e-08
-6.77759e-08 -1.63649e-07 3.42615e-08
-6.69032e-08 -1.61532e-07 2.96799e-08
-3.35525e-08 -1.95134e-07 6.54545e-08
-3.19651e-08 -1.92648e-07 6.13979e-08
-1.20603e-09 3.67958e-07 -6.50763e-09
-2.16447e-07 3.2769e-07 2.63265e-08
-2.12281e-07 3.29725e-07 1.9634e-08
-1.78643e-07 3.12292e-07 3.06117e-08
-1.7818e-07 3.19832e-07 3.00152e-08
-2.4335e-07 -2.27478e-07 2.63934e-08
-2.06342e-07 3.2749e-07 2.77002e-08
3.52169e-07 -7.51999e-08 -6.07835e-08
3.2482e-07 -8.89775e-08 -7.03669e-08
-2.85858e-07 2.82569e-07 3.75708e-08
8.24994e-08 4.1418e-07 -1.70567e-08
-1.01341e-07 -5.58837e-08 -1.41852e-08
-1.9033e-07 3.2659e-07 2.29756e-08
-5.1392e-07 1.45929e-07 -6.72261e-08
-5.23347e-07 1.38184e-07 -6.43306e-08
8.82665e-07 1.46249e-07 -3.62566e-08
-5.13603e-07 1.43381e-07 -6.69798e-08
-1.44955e-07 3.756e-07 -2.90045e-08
-1.16428e-07 3.88274e-07 -2.91932e-08
-4.07745e-07 -6.21914e-08 4.468e-08
-4.15153e-07 -5.76941e-08 3.89212e-08
5.50748e-07 2.7799e-07 2.14615e-07
5.3247e-07 2.92703e-07 2.19176e-07
2.60106e-07 3.21811e-07 -5.49384e-08
-4.93682e-07 1.53832e-07 4.36873e-08
-4.91794e-07 1.50594e-07 4.20201e-08
-3.38616e-07 -9.57121e-08 1.42456e-08
-3.39186e-07 -8.73215e-08 1.35355e-08
-4.91797e-07 1.54829e-07 4.20138e-08
3.36539e-08 3.63038e-07 6.61534e-08
-1.78755e-07 7.88986e-08 -1.62465e-08
-1.81221e-07 8.55944e-08 -1.74433e-08
-1.01632e-09 3.63253e-07 6.04341e-08
3.31873e-07 -9.64516e-08 -7.22261e-08
3.48551e-07 -9.41881e-08 -6.46946e-08
1.13456e-06 5.36022e-08 4.67363e-08
1.14811e-06 4.873e-08 3.24841e-08
-1.8931e-07 3.24419e-07 -4.26147e-09
6.82033e-07 2.12841e-07 5.99418e-08
1.76426e-07 3.4822e-07 -1.15663e-07
1.57413e-07 3.63209e-07 -1.11966e-07
-1.59036e-07 3.29963e-07 9.24468e-09
-1.57773e-07 3.24703e-07 2.51365e-09
-3.45916e-08 3.45133e-07 -2.32684e-08
-1.80149e-08 3.8241e-07 -2.4608e-08
-5.22601e-07 1.45545e-08 -9.52742e-09
-5.18977e-07 1.29347e-08 -9.64089e-09
3.67826e-07 2.99092e-07 -5.4232e-08
3.8605e-07 3.02451e-07 4.49838e-09
3.93393e-07 2.95262e-07 1.02906e-08
3.98763e-07 2.96957e-07 1.30648e-08
-2.5834e-07 1.55449e-07 7.12396e-09
2.59852e-07 3.26035e-07 2.5208e-08
5.07095e-07 2.50538e-07 9.57364e-09
5.1822e-07 2.51013e-07 6.89247e-09
2.24299e-07 3.27743e-07 2.76139e-08
-9.44814e-09 -1.32995e-07 9.93953e-09
-3.47592e-09 -1.30666e-07 6.05709e-09
2.1663e-07 3.3291e-07 2.09927e-08
6.09878e-07 2.44335e-07 -1.28849e-07
-1.36202e-07 -1.23883e-07 -2.56044e-08
-1.36649e-07 -1.30945e-07 -2.67373e-08
6.05355e-07 2.38409e-07 -1.18153e-07
6.42707e-07 2.31568e-07 -1.24865e-07
6.56802e-07 2.21412e-07 -1.13138e-07
5.95312e-07 2.48044e-07 -1.24182e-07
-1.60434e-07 -7.83342e-08 1.76934e-08
-1.61666e-07 -6.971e-08 1.53808e-08
8.88189e-08 4.1428e-07 -1.81748e-08
6.10437e-09 -1.59323e-07 -1.5589e-08
2.0454e-08 -1.58675e-07 -1.65287e-08
5.85256e-08 4.14386e-07 -1.9514e-08
-2.47952e-07 3.35425e-07 -2.39142e-08