# vtk DataFile Version 2.0
S, Created by Mohamad Ibrahim Cheikh
ASCII
DATASET UNSTRUCTURED_GRID
POINTS 23916 double
-133.54 71.1323 100.9
-136.628 69.1106 101.795
-302.516 -56.6319 54.8864
-299.523 -55.7742 57.7019
-346.688 29.4288 42.9272
1.17377 5.77035 131.873
-305.734 66.0899 40.1521
-313.103 -51.5305 52.5957
-305.856 64.0279 43.2586
-341.933 -24.6778 50.0063
-338.693 -24.0714 52.9172
-344.365 -20.6036 49.8075
-342.611 -17.5124 52.4037
65.9276 39.6437 -123.775
69.5939 41.796 -122.817
-333.677 -40.5466 46.352
-335.436 -37.2005 47.5873
-19.5425 20.9336 130.15
-357.202 11.1944 -40.9556
-358.954 8.06239 -39.801
-337.924 24.2844 53.4195
-164.319 -101.746 61.3686
-164.214 -99.9191 64.3326
-316.022 -65.575 -29.9462
-318.651 -65.2503 -27.1107
-150.963 74.9146 -94.9823
-147.369 76.6057 -94.3222
-338.06 27.516 51.72
-280.624 35.528 80.7488
-243.945 86.1963 52.0427
-239.912 87.7104 51.8077
-158.275 66.3961 99.7424
-155.876 68.5771 98.7242
-283.515 32.621 80.7394
-334.499 3.49019 60.9353
-331.827 6.32888 62.4758
-238.14 101.629 12.3462
-247.22 -10.0032 99.2032
-250.234 -12.1012 98.0373
-218.19 -91.3883 -56.9533
-221.962 -91.7297 -54.5699
-217.429 -84.3043 67.2968
-220.615 -84.9165 65.2256
-210.08 -90.992 61.1651
-216.307 11.9768 107.481
-214.209 15.5572 107.537
-213.481 -91.3947 59.0877
-179.227 111.171 33.6479
-180.181 110.035 36.6276
-283.328 4.52282 87.0373
-281.318 7.97085 87.5861
322.278 16.8816 -66.5059
323.851 13.3223 -66.3784
-259.181 29.1674 91.3729
-261.636 26.1748 91.4228
11.3851 8.42801 -131.67
-318.461 -51.2417 -48.8028
-316.241 -50.6405 -51.1419
-327.031 -51.324 -41.1825
194.322 72.7814 86.6244
-324.265 -51.4294 -43.6546
38.6124 96.3064 -89.2555
-231.015 103.331 -14.5922
-234.852 102.214 -14.9543
-325.172 -52.5688 41.4141
-327.318 -50.0889 42.4063
-27.0943 14.3814 -130.871
-122.093 120.913 31.2878
-125.297 120.06 32.9792
10.6413 14.7824 131.117
7.04477 17.1415 130.859
-238.681 36.0535 95.6527
-241.677 33.7175 95.5835
-306.34 48.561 59.8035
-241.765 36.0671 -94.6947
-15.325 22.5823 129.943
-243.797 38.8591 -92.9357
-243.571 -11.8324 100.103
-243.663 -15.8025 99.5259
300.33 -16.5629 78.1452
299.299 -13.2223 79.2582
-292.747 64.2609 52.9356
-296.606 63.4066 51.3106
-103.566 118.883 44.4711
-101.391 117.934 47.5081
-235.875 78.02 67.2698
-240.233 76.4247 67.213
-309.523 45.5321 60.1787
-347.796 25.5334 44.3017
-358.754 20.7262 -35.1726
-361.185 20.6106 -32.0557
-193.096 -81.3844 -78.9659
-194.027 -78.6418 -81.4271
7.09505 -8.18056 131.723
-334.619 40.2858 -45.7445
-243.478 -60.2518 -80.8448
-245.618 -57.6482 -81.9433
-194.874 85.8199 73.5497
-191.222 85.5757 74.9934
-194.769 -73.7138 -85.708
-155.108 96.4806 71.9028
-340.419 38.4325 -41.9414
-242.791 89.2481 47.3477
-245.675 87.4149 48.9202
-296.014 27.4846 -77.0762
60.0736 -8.22538 -130.056
-298.45 24.6433 -76.8864
-352.514 -26.6498 38.7281
-349.925 -29.1783 39.7655
-317.493 65.9979 -26.9637
30.8787 18.893 -130.193
-314.017 67.8546 -27.3367
-337.383 40.7211 -42.7769
-192.2 109.48 -30.255
-188.503 110.475 -29.4779
-186.417 111.781 -25.9699
-190.206 111.435 -24.018
-176.058 -116.196 -11.2995
-179.147 -114.862 -17.3658
-343.352 40.3431 36.9188
-298.58 -72.131 -36.1447
-295.138 -73.6313 -36.5781
-178.994 -115.441 -13.2238
35.4408 21.6563 129.62
-27.4561 10.933 131.195
-24.1419 12.5848 131.127
-250.097 -19.4851 96.8839
67.1398 -15.6041 128.952
-25.5473 2.45836 131.674
-251.848 -15.823 96.9957
-259.232 45.7732 84.2693
-296.441 -66.3229 47.6072
-255.05 47.771 84.7216
-23.9485 -0.841267 131.731
-253.192 50.4641 83.8382
-27.514 7.69979 131.423
-251.634 88.0202 -43.8655
-251.516 89.7495 -40.2992
-189.285 63.3378 95.0041
-192.605 62.6163 94.6649
-243.952 90.628 43.868
-265.698 -79.8892 48.9766
-299.164 -61.614 51.6751
-299.606 -64.0864 48.2402
-282.197 22.2813 -84.7217
-284.251 19.1693 -84.6422
303.664 52.8414 -57.812
306.01 50.6359 -58.2699
306.393 47.9169 -60.288
-40.5772 -17.49 -130.064
-261.872 94.3984 -10.8187
-204.347 94.8811 57.5252
-206.994 93.2026 59.0896
-68.8922 122.063 -44.0861
-356.873 31.0991 -29.3998
-263.922 94.0178 -7.53731
-374.415 12.4586 10.2789
-375.602 9.9504 7.26949
-261.463 95.0082 -5.26433
-347.372 50.1208 -11.7708
-344.703 52.5532 -10.7234
181.652 92.8955 68.953
180.509 95.3244 65.9397
176.201 96.0563 66.3033
-360.801 -3.00745 -38.4352
-358.11 -3.99895 -41.3178
-76.8205 120.026 -47.9092
-322.636 65.1124 20.9796
-325.057 63.4058 21.6203
-326.665 61.3524 24.3999
-325.514 60.7671 27.5446
110.858 -120.334 -37.9366
-334.847 -51.0009 -33.1015
-338.07 -49.165 -31.8446
108.269 -119.711 -40.7187
104.438 -120.16 -40.622
-186.351 90.2234 70.9375
-186.868 87.9326 73.5978
-355.45 -31.2813 31.2571
-352.81 -34.5698 31.4552
-73.3571 121.144 -45.7084
-319.618 -59.5582 37.0118
-262.572 -25.1406 -91.3844
-316.078 -60.5654 39.0431
-313.421 -63.3174 37.2587
-326.928 2.24454 -65.828
-329.176 -0.100767 -64.4811
-185.107 -102.135 -52.8911
-328.848 -4.11341 -64.555
-243.093 -91.6414 42.3197
-278.887 67.399 57.9566
-281.862 65.2039 58.7013
-329.952 -29.7677 -56.6488
-330.696 -32.6918 -54.4634
-328.405 -38.6415 -52.2184
-326.106 -41.8897 -51.4719
-309.026 -30.5551 -69.2721
-313.102 -29.1158 -67.632
-299.77 48.2116 64.014
-301.592 44.3021 65.7669
-194.159 108.993 30.483
-197.747 108.123 30.7569
-278.787 16.1312 -87.4541
-277.867 12.4525 -88.4085
-278.578 28.841 -84.2074
-276.438 31.653 -84.0608
-178.299 88.0291 -76.0445
-177.594 85.5816 -78.9835
-292.499 -51.4415 -65.5987
-288.602 -52.6914 -66.7101
-190.291 -103.362 -48.0306
-170.986 -116.293 17.9008
-258.56 -56.2718 -77.9269
-289.394 84.4211 -6.60749
-255.744 68.4618 68.7708
-291.087 83.3158 -10.4274
-189.169 -102.076 -51.2183
-185.917 -112.999 20.5781
58.4047 5.16245 130.306
55.4067 7.28356 130.365
-183.058 -114.127 17.2136
-77.1989 -115.948 -57.0123
-224.893 66.1651 82.7892
-223.279 69.383 80.6624
-240.293 -79.761 -63.1899
-237.795 -78.417 -65.9679
-340.995 34.0007 45.0779
-228.591 64.3763 82.9594
64.1415 75.8328 -105.687
-17.3472 -13.454 131.172
-216.564 71.3938 -81.1478
-215.132 69.2584 -83.4324
-356.991 21.2395 37.0133
31.1219 -15.7104 -130.609
60.8466 78.1039 -104.262
-233.017 -41.9546 94.9536
-233.926 -44.7747 93.3792
214.329 -105.243 26.9021
210.244 -106.324 26.5985
208.699 -107.444 23.3945
-61.6683 125.431 -35.0079
-262.876 90.6886 -27.1882
-265.262 89.0015 -29.8003
-62.4306 124.186 -39.0475
-317.248 1.88739 -71.4022
338.809 21.6769 53.8532
-41.5619 12.802 -130.57
-45.4929 13.877 -130.3
-286.899 77.4921 36.6277
334.936 17.1983 58.2555
337.953 18.7163 55.5935
-278.604 -12.2661 88.1504
-275.623 -14.7965 88.906
-210.636 1.80565 109.493
-212.059 -1.45874 109.162
-81.3649 110.163 66.9146
-84.2792 110.979 65.0994
-377.183 1.19484 -2.17852
-306.224 -68.3365 -35.6851
-304.683 -70.8439 -32.2442
-236.474 -88.0996 53.0674
-377.025 -4.15269 1.8856
-377.13 -2.66009 -1.99046
-276.38 -89.1542 11.1169
-284.567 -86.2727 8.17203
-279.101 -87.8302 13.1484
-282.865 -86.557 11.6575
9.51608 16.9293 -130.868
-352.753 -9.94132 45.723
-246.682 50.759 86.008
-242.935 52.6084 86.2023
-338.95 57.7122 -5.25603
-341.662 55.8783 -3.15995
-255.059 -61.8696 -75.043
-1.14288 3.40378 131.955
-352.322 -6.54679 -46.7306
-352.592 -2.13506 -46.8912
-310.492 69.0544 29.1988
-142.581 85.3476 -87.4692
-252.998 -32.7181 -92.2876
-249.496 -33.0047 -93.3468
-136.748 89.6484 -84.248
-139.015 87.2471 -86.2899
-307.319 -65.3917 39.8117
-310.197 -63.2664 40.5067
-304.054 -65.6942 42.3046
-331.411 -14.7176 61.3226
-333.544 -20.8908 58.0256
-331.368 -18.2643 60.3903
-314.902 -56.2555 46.0297
-317.999 -54.5649 45.4546
-320.308 -55.0579 42.7969
335.776 -19.759 -56.834
338.51 -17.5397 -55.562
-364.494 -30.0654 -15.9512
-288.722 80.363 27.5674
-366.438 -26.4432 -16.8883
-284.588 75.5359 42.4577
-288.194 73.5855 42.9028
-289.76 33.1237 -77.7653
-287.251 35.0151 -78.0756
-333.002 14.7481 -60.2503
-330.562 17.599 -61.124
-258.829 86.9302 -40.8073
-255.504 88.7917 -39.3383
-291.209 81.2301 21.0532
-285.947 84.3745 17.1565
-248.062 97.834 17.855
-287.948 82.7897 20.4616
-341.513 25.3321 -50.031
-344.735 24.9327 -47.4603
-344.731 28.4075 -45.4691
300.273 44.4759 66.3861
303.761 43.5726 65.0285
-36.8445 86.8417 98.5713
-291.136 -61.5504 57.0817
304.58 39.9038 66.8877
-286.906 -50.0345 -69.5896
-311.071 72.6219 17.4086
-313.412 70.6861 20.0367
-284.055 -49.3526 -71.4823
-281.319 -51.9213 -70.9857
-292.608 81.4943 -17.3281
-288.788 83.2424 -16.8579
-331.293 61.1269 -15.8163
-287.543 84.4217 -13.2034
-145.959 -102.309 65.944
-143.035 -103.642 64.6342
-318.35 70.3343 -8.31535
-317.365 69.9408 -14.1783
-319.374 69.2901 -11.62
-333.342 8.05976 -61.2774
-331.35 5.225 -62.8865
-331.233 11.6581 -62.0936
-317.329 42.237 57.5461
-318.243 38.3504 59.6126
-277.003 72.1338 -53.1653
-280.647 71.5783 -51.552
-172.109 107.687 -46.9151
-169.288 107.077 -49.4969
-169.631 -45.0723 -108.948
-171.018 -48.1802 -107.34
-174.9 -49.5209 -105.955
-154.368 80.8566 89.268
72.2076 128.964 -12.4026
68.4258 129.109 -13.4781
-24.5199 5.40109 131.61
-284.057 25.1138 -83.1541
-287.234 24.4483 -82.0084
-254.818 -58.559 -77.7506
-286.996 -50.2729 69.3717
75.6695 128.929 -10.0176
-125.722 -90.6908 -85.2293
-288.514 62.8047 57.3447
-289.98 60.063 59.3419
-223.919 -91.2534 54.3893
-224.973 -92.7672 51.2022
6.05699 -71.1401 -111.169
9.62829 -70.6186 -111.47
-127.095 -93.2581 -82.154
-370.128 -9.4451 -23.7154
-344.645 -34.5768 -41.0629
-342.987 -38.7556 -38.978
-371.9 -7.23303 -20.9367
-347.466 7.71413 -50.8247
-332.479 58.797 -20.8124
-306.049 19.8632 74.5779
-305.83 23.4044 73.6552
-330.522 -30.5567 55.8159
-344.095 7.38155 -53.6054
-129.647 50.6348 113.147
-126.169 52.4198 112.815
-341.732 10.1519 -54.9857
-344.137 -33.1454 42.7302
-48.0068 5.26928 130.821
-175.908 110.521 37.6924
-172.367 111.58 36.5571
-210.074 -72.4032 -82.3333
-314.244 44.988 57.5339
-216.423 -71.4813 -81.1166
-212.97 -70.2422 -83.2889
-338.529 28.7623 -50.6554
-3.66857 -82.975 -102.652
-321.15 49.822 -48.1103
-320.095 52.9709 -45.5388
45.4159 128.984 -23.1219
51.6354 129.456 -18.4034
-318.33 -70.7563 -3.34183
-318.851 -70.1827 -7.16646
[...]
POINT_DATA 23916
VECTORS F double
1.14358e-07 5.70448e-08 -2.16852e-08
1.11674e-07 5.92431e-08 -2.18703e-08
-6.64496e-08 5.97906e-08 1.68522e-08
-6.58862e-08 6.12929e-08 1.73732e-08
5.52301e-08 8.28685e-08 -2.20043e-09
-2.39025e-08 3.15506e-08 -1.35451e-09
1.05404e-07 6.25263e-08 -4.65662e-09
-6.29554e-08 6.25909e-08 1.54395e-08
1.01412e-07 6.21751e-08 -4.24041e-09
-3.27211e-08 7.78596e-08 1.10308e-08
-3.16068e-08 7.85515e-08 1.09647e-08
-2.78719e-08 8.15614e-08 1.01464e-08
-2.21686e-08 8.04199e-08 9.13023e-09
2.33756e-08 -4.06926e-09 2.21007e-10
2.56809e-08 -6.88997e-09 -5.63142e-10
-5.48634e-08 6.96811e-08 1.26001e-08
-5.04634e-08 7.26059e-08 1.32086e-08
-1.31737e-10 5.08401e-08 -8.17968e-09
2.74076e-08 9.15185e-08 -4.25125e-09
2.16043e-08 9.35492e-08 -4.90489e-09
4.55795e-08 8.10839e-08 -1.56021e-09
-1.20598e-07 3.65667e-08 2.10914e-08
-1.17643e-07 3.73011e-08 2.11697e-08
-8.18749e-08 5.57623e-08 -1.63231e-08
-8.17221e-08 5.48979e-08 -1.45298e-08
1.23529e-07 5.43339e-08 1.88171e-08
1.24501e-07 5.38885e-08 1.99514e-08
5.14329e-08 8.15832e-08 -2.2445e-09
6.04172e-08 6.77478e-08 -4.10146e-09
1.30134e-07 4.80979e-08 -4.98115e-09
1.31021e-07 4.74141e-08 -5.98914e-09
1.0495e-07 6.05079e-08 -1.98893e-08
1.07778e-07 5.8847e-08 -2.0043e-08
5.65092e-08 7.02067e-08 -4.07148e-09
1.23774e-08 8.34368e-08 3.53953e-09
1.63873e-08 8.1446e-08 2.40557e-09
1.5309e-07 4.39893e-08 -5.81956e-10
-9.07123e-10 7.47054e-08 7.25622e-09
-1.55334e-09 7.34581e-08 8.58188e-09
-1.00724e-07 4.80794e-08 -2.99063e-08
-1.00272e-07 4.62384e-08 -2.77911e-08
-9.58549e-08 4.94323e-08 2.40087e-08
-9.54372e-08 4.77879e-08 2.26939e-08
-1.05272e-07 4.45293e-08 2.19767e-08
2.91191e-08 7.63792e-08 -1.33632e-09
3.64571e-08 7.37121e-08 -1.77275e-09
-1.05197e-07 4.32716e-08 2.03984e-08
1.69542e-07 3.45053e-08 -3.44052e-09
1.66348e-07 3.45728e-08 -3.6758e-09
1.66693e-08 7.52654e-08 2.73231e-09
2.22104e-08 7.31391e-08 2.07781e-09
1.42542e-08 -5.51402e-08 -5.53988e-09
1.03497e-08 -5.71906e-08 -5.29635e-09
5.12761e-08 6.78671e-08 -3.85702e-09
4.63794e-08 7.08822e-08 -4.04383e-09
-1.50867e-08 3.34452e-08 1.98107e-09
-6.04248e-08 6.4296e-08 -1.92348e-08
-6.009e-08 6.5716e-08 -1.958e-08
-6.44603e-08 6.47187e-08 -1.79864e-08
6.17786e-08 -4.21974e-08 1.8487e-08
-6.43245e-08 6.57278e-08 -1.89365e-08
1.33513e-07 2.8956e-08 3.83147e-08
1.55279e-07 4.29989e-08 3.51572e-09
1.54168e-07 4.39332e-08 3.86272e-09
-6.85825e-08 6.22038e-08 1.30305e-08
-6.63466e-08 6.47768e-08 1.38151e-08
-6.34561e-11 6.45959e-08 7.10003e-09
1.92939e-07 2.47686e-08 -3.54152e-09
1.90304e-07 2.5813e-08 -5.4518e-09
-1.31307e-08 2.74319e-08 -2.96225e-09
-1.04962e-08 3.20356e-08 -4.12723e-09
5.98318e-08 6.59289e-08 -6.57137e-09
5.76742e-08 6.70721e-08 -5.80643e-09
7.95839e-08 6.71192e-08 -4.5909e-09
6.63871e-08 6.93332e-08 5.65641e-09
4.65904e-10 5.05362e-08 -8.77573e-09
6.80851e-08 6.99168e-08 7.36732e-09
-5.78811e-10 7.47522e-08 8.66347e-09
-7.04112e-09 7.40449e-08 9.64619e-09
-2.45778e-08 -5.45764e-08 -2.9475e-12
-2.10057e-08 -5.34675e-08 7.91871e-10
1.01249e-07 6.14074e-08 -5.99276e-09
1.00243e-07 6.12791e-08 -4.78104e-09
1.93444e-07 2.42778e-08 -9.74623e-09
1.92295e-07 2.37892e-08 -8.80957e-09
1.17302e-07 4.95634e-08 -7.12725e-09
1.1626e-07 5.00187e-08 -5.99938e-09
7.57955e-08 6.9721e-08 -5.02283e-09
4.76936e-08 8.39594e-08 -2.54909e-09
4.44626e-08 9.29638e-08 -7.42901e-10
4.37372e-08 9.30594e-08 -5.01355e-10
-9.02174e-08 5.6941e-08 -3.16756e-08
-8.51642e-08 5.91328e-08 -3.2265e-08
-4.00009e-08 2.42649e-08 1.77074e-09
7.37587e-08 7.85347e-08 3.1066e-09
-5.83443e-08 6.44462e-08 -2.65176e-08
-5.63341e-08 6.67887e-08 -2.63136e-08
1.30323e-07 4.68986e-08 -1.24476e-08
1.31522e-07 4.79631e-08 -1.36726e-08
-7.91926e-08 6.28962e-08 -3.20613e-08
1.5112e-07 4.22661e-08 -1.68018e-08
7.1502e-08 8.01317e-08 2.37516e-09
1.34381e-07 4.70158e-08 -4.25781e-09
1.31591e-07 4.8638e-08 -6.00289e-09
5.1138e-08 7.40868e-08 2.37361e-09
-3.30887e-08 -1.72487e-09 -1.76211e-09
4.74368e-08 7.64874e-08 1.97162e-09
-4.11962e-08 8.13121e-08 1.0044e-08
-4.3223e-08 7.84471e-08 1.09949e-08
1.09311e-07 6.58472e-08 3.58831e-09
-4.09464e-09 2.06652e-08 2.87993e-09
1.108e-07 6.45609e-08 4.42665e-09
7.38062e-08 7.89418e-08 3.87959e-09
1.66179e-07 3.75673e-08 6.69281e-09
1.67138e-07 3.66584e-08 6.53134e-09
1.70517e-07 3.6072e-08 5.40744e-09
1.69228e-07 3.63301e-08 4.48126e-09
-1.33988e-07 2.56443e-08 -8.11376e-09
-1.3109e-07 2.67472e-08 -1.13459e-08
7.18374e-08 7.90989e-08 -4.63917e-09
-8.47609e-08 5.27583e-08 -1.95618e-08
-8.48317e-08 5.17437e-08 -2.0358e-08
-1.32873e-07 2.64454e-08 -1.06661e-08
-6.49899e-09 1.01849e-08 -1.48412e-09
-1.13297e-08 5.15686e-08 -4.58769e-09
-1.07751e-08 5.13535e-08 -5.17149e-09
-1.12326e-08 7.22271e-08 1.09762e-08
-4.38387e-08 -1.11434e-08 1.44602e-09
-2.27395e-08 4.81655e-08 -1.43939e-09
-7.43069e-09 7.48089e-08 9.84157e-09
7.30327e-08 6.15367e-08 -5.91947e-09
-7.76933e-08 5.41383e-08 1.61922e-08
7.37258e-08 6.22887e-08 -7.94883e-09
-2.80929e-08 4.51373e-08 -3.37001e-10
7.87792e-08 5.9995e-08 -6.9844e-09
-1.67345e-08 5.13894e-08 -3.43971e-09
1.3415e-07 4.99483e-08 6.00931e-09
1.37385e-07 5.00492e-08 6.48558e-09
9.99697e-08 6.06382e-08 -1.60411e-08
9.92206e-08 5.99324e-08 -1.49269e-08
1.36723e-07 4.76516e-08 -5.3577e-09
-9.13698e-08 4.84181e-08 1.82918e-08
-7.25594e-08 5.69495e-08 1.64735e-08
-7.70182e-08 5.64383e-08 1.64144e-08
4.48624e-08 7.34049e-08 1.01014e-09
3.93898e-08 7.56756e-08 9.43329e-10
5.11256e-08 -4.69004e-08 -9.99008e-09
4.99458e-08 -4.85384e-08 -1.00665e-08
4.61598e-08 -4.92104e-08 -1.03914e-08
-3.67307e-08 6.05495e-08 -6.73928e-09
1.43173e-07 4.89251e-08 2.60317e-09
1.42924e-07 4.14083e-08 -6.13913e-09
1.40657e-07 4.26062e-08 -6.87803e-09
2.067e-07 1.81352e-08 1.0666e-08
6.26499e-08 8.83665e-08 3.67583e-10
1.42323e-07 4.9123e-08 2.61218e-09
2.73675e-08 1.02038e-07 -1.62483e-09
2.20137e-08 1.02602e-07 -1.18281e-09
1.44025e-07 4.86406e-08 2.06527e-09
9.17047e-08 7.83173e-08 2.1424e-09
9.46307e-08 7.62348e-08 1.19037e-09
8.9555e-08 -3.81153e-08 2.24654e-08
9.46134e-08 -3.66976e-08 2.13413e-08
9.44637e-08 -3.68975e-08 2.27203e-08
3.01897e-11 9.29747e-08 -7.31003e-09
-2.85075e-10 9.21281e-08 -8.6144e-09
2.00841e-07 2.1132e-08 1.3514e-08
1.07548e-07 6.588e-08 -1.97347e-09
1.05627e-07 6.70903e-08 -2.32547e-09
1.02001e-07 6.7701e-08 -3.04127e-09
1.01206e-07 6.73128e-08 -2.07085e-09
-1.30247e-07 -1.42863e-08 -1.28191e-09
-6.79885e-08 6.53279e-08 -1.64513e-08
-6.75205e-08 6.66655e-08 -1.51653e-08
-1.30382e-07 -1.3919e-08 -1.52306e-09
-1.30783e-07 -1.34311e-08 -1.43668e-09
1.38066e-07 4.57087e-08 -1.37304e-08
1.33716e-07 4.60156e-08 -1.34116e-08
-5.12281e-08 7.97507e-08 8.48969e-09
-5.43221e-08 7.60676e-08 9.00381e-09
2.04618e-07 1.94263e-08 1.12819e-08
-7.64999e-08 5.77614e-08 1.20678e-08
-1.63182e-08 7.53143e-08 -1.49792e-08
-7.63656e-08 5.77758e-08 1.39347e-08
-7.86086e-08 5.51676e-08 1.27937e-08
1.499e-08 8.18021e-08 -6.32531e-09
1.19545e-08 8.30924e-08 -7.60154e-09
-1.1646e-07 4.07445e-08 -2.87787e-08
4.8488e-09 8.19653e-08 -8.24688e-09
-1.02847e-07 4.11477e-08 1.67751e-08
1.04334e-07 5.82971e-08 -6.32803e-09
1.0199e-07 6.0101e-08 -6.80238e-09
-3.37641e-08 7.69074e-08 -1.63361e-08
-3.94219e-08 7.67002e-08 -1.67339e-08
-4.69885e-08 7.33445e-08 -1.80949e-08
-5.01546e-08 7.00752e-08 -1.81263e-08
-2.84828e-08 7.49538e-08 -1.75049e-08
-2.85735e-08 7.5338e-08 -1.62381e-08
7.94916e-08 6.65821e-08 -4.57099e-09
7.21191e-08 6.84132e-08 -5.59421e-09
1.64404e-07 3.65808e-08 -2.59123e-09
1.63674e-07 3.70849e-08 -1.5327e-09
3.63721e-08 7.58395e-08 -2.06644e-10
3.20641e-08 7.46162e-08 -1.82838e-09
5.49908e-08 7.28431e-08 2.67585e-09
5.93004e-08 7.10598e-08 2.88209e-09
1.35476e-07 4.68099e-08 1.52977e-08
1.33939e-07 4.70917e-08 1.41545e-08
-5.48609e-08 6.68548e-08 -2.24776e-08
-5.45521e-08 6.66424e-08 -2.37438e-08
-1.17333e-07 3.88685e-08 -2.67325e-08
-1.34327e-07 2.48563e-08 4.39365e-09
-5.64045e-08 6.56984e-08 -2.45287e-08
1.3143e-07 5.53239e-08 2.09431e-09
1.03219e-07 5.61283e-08 -8.88116e-09
1.29557e-07 5.56854e-08 2.14137e-09
-1.16308e-07 3.98055e-08 -2.67382e-08
-1.30026e-07 2.71811e-08 5.43286e-09
-2.28534e-08 -6.01939e-09 1.49255e-09
-2.15712e-08 -3.54347e-09 1.32043e-09
-1.32156e-07 2.63944e-08 2.93188e-09
-1.39135e-07 2.14661e-08 -2.05906e-08
1.01232e-07 5.35329e-08 -9.11609e-09
1.08062e-07 5.18821e-08 -8.00542e-09
-8.28766e-08 5.35612e-08 -2.90226e-08
-8.28563e-08 5.55157e-08 -2.94256e-08
6.11506e-08 8.05185e-08 -4.09863e-09
9.97644e-08 5.39757e-08 -8.22943e-09
7.61116e-08 -1.83755e-09 4.33686e-09
-4.34564e-08 3.77145e-08 3.16467e-09
1.12437e-07 5.53229e-08 1.19358e-08
1.10036e-07 5.45982e-08 1.05854e-08
4.26397e-08 8.88912e-08 -6.57885e-10
-4.26493e-08 1.5266e-08 -3.08051e-09
8.00617e-08 2.41549e-09 7.52983e-09
-4.07426e-08 6.94201e-08 1.84319e-08
-4.57817e-08 6.96652e-08 1.93626e-08
-1.10596e-07 -2.82673e-08 -2.70792e-09
-1.11131e-07 -2.76098e-08 -2.82098e-09
-1.12732e-07 -2.73452e-08 -2.4646e-09
2.15819e-07 1.58583e-08 1.02738e-08
1.38601e-07 5.05689e-08 4.60832e-09
1.35723e-07 5.14344e-08 5.70398e-09
2.12792e-07 1.61692e-08 9.77123e-09
1.51634e-08 7.99454e-08 -6.13532e-09
2.16388e-08 -6.0086e-08 7.51847e-09
4.75962e-09 7.33284e-08 7.0041e-09
4.9982e-09 7.59371e-08 7.87372e-09
1.19369e-07 5.54745e-08 -2.8927e-09
1.58926e-08 -5.93785e-08 6.34298e-09
1.72455e-08 -5.9434e-08 7.17427e-09
-5.98215e-09 7.38456e-08 7.9608e-09
-6.57968e-09 7.30284e-08 9.65667e-09
1.76675e-08 7.54799e-08 2.9164e-09
1.16001e-08 7.69354e-08 3.78705e-09
1.85749e-07 3.12685e-08 -2.38257e-08
1.831e-07 2.97255e-08 -2.16536e-08
2.78834e-09 1.03468e-07 -2.3645e-09
-8.08088e-08 5.44605e-08 -1.93926e-08
-8.49951e-08 5.2742e-08 -1.75512e-08
-9.7459e-08 4.43357e-08 2.04336e-08
-9.26086e-09 1.02226e-07 -1.56244e-09
-5.81389e-09 1.02654e-07 -2.33244e-09
-1.02657e-07 3.91028e-08 1.13003e-09
-1.00143e-07 4.04937e-08 5.54521e-10
-1.0142e-07 4.00162e-08 3.73088e-09
-1.01487e-07 4.09266e-08 2.38845e-09
-4.42841e-09 3.71803e-08 4.77029e-09
-1.20309e-08 8.65957e-08 7.4644e-09
8.01768e-08 6.05977e-08 -7.60888e-09
8.13728e-08 6.01413e-08 -8.62736e-09
1.01656e-07 7.32075e-08 1.23246e-09
9.91254e-08 7.41959e-08 -1.46708e-10
-6.30504e-08 6.34254e-08 -2.60549e-08
-2.53912e-08 3.23717e-08 -8.61946e-10
-3.98739e-09 8.87852e-08 -8.75812e-09
4.67822e-09 9.01822e-08 -8.41314e-09
1.11249e-07 6.22002e-08 -2.26746e-09
1.38925e-07 4.95432e-08 2.06162e-08
-2.61356e-08 7.33782e-08 -1.72424e-08
-2.56619e-08 7.52986e-08 -1.82261e-08
1.45961e-07 4.58766e-08 1.98115e-08
1.39729e-07 4.88651e-08 2.18472e-08
-7.95286e-08 5.38401e-08 1.32728e-08
-7.86398e-08 5.61796e-08 1.40157e-08
-7.94889e-08 5.45636e-08 1.47855e-08
-1.49217e-08 7.91339e-08 9.11929e-09
-2.53451e-08 7.83026e-08 1.03543e-08
-2.17804e-08 7.80691e-08 8.97927e-09
-6.976e-08 5.99777e-08 1.48725e-08
-6.96968e-08 6.13663e-08 1.39691e-08
-7.03636e-08 6.06668e-08 1.35723e-08
-2.57709e-08 -5.78641e-08 1.47647e-09
-2.41754e-08 -5.86351e-08 4.77132e-10
-5.23662e-08 8.21249e-08 -8.29164e-09
1.24556e-07 5.54766e-08 -2.01095e-09
-4.71192e-08 8.58459e-08 -9.24474e-09
1.16343e-07 5.58934e-08 -3.96447e-09
1.14697e-07 5.75057e-08 -4.30433e-09
6.07451e-08 7.28639e-08 3.32489e-09
6.20507e-08 7.26033e-08 4.6108e-09
3.33667e-08 8.48909e-08 -1.79869e-09
3.77243e-08 8.21651e-08 -1.32055e-09
1.33945e-07 5.19159e-08 6.58077e-09
1.36252e-07 5.02961e-08 5.17884e-09
1.2664e-07 5.58946e-08 -1.20004e-09
1.30933e-07 5.43866e-08 -2.94019e-10
1.47429e-07 4.6035e-08 -1.47408e-09
1.2791e-07 5.47798e-08 -1.26706e-09
5.12493e-08 8.45891e-08 -7.2933e-14
5.0251e-08 8.46253e-08 -2.31013e-10
5.63165e-08 8.47377e-08 6.66576e-10
4.06506e-08 -5.14295e-08 1.19446e-08
4.06897e-08 -5.09562e-08 1.08731e-08
1.33262e-07 5.92481e-08 -4.60994e-08
-7.14821e-08 5.74648e-08 1.73274e-08
3.57882e-08 -5.22381e-08 1.12123e-08
-5.0256e-08 6.66614e-08 -2.2562e-08
1.17012e-07 6.14141e-08 -2.09502e-10
1.13903e-07 6.22868e-08 -1.60794e-09
-5.01231e-08 6.8925e-08 -2.32015e-08
-5.19075e-08 6.60024e-08 -2.3091e-08
1.27493e-07 5.67187e-08 3.16846e-09
1.28966e-07 5.5414e-08 3.14523e-09
1.04045e-07 6.97811e-08 2.87027e-09
1.31305e-07 5.52277e-08 3.02664e-09
-1.23109e-07 3.55562e-08 2.18031e-08
-1.24138e-07 3.35442e-08 2.0155e-08
1.15266e-07 6.4095e-08 1.86243e-09
1.14511e-07 6.40221e-08 2.00465e-09
1.13342e-07 6.42552e-08 1.76193e-09
2.30011e-08 8.50411e-08 -4.13365e-09
1.94341e-08 8.24502e-08 -5.68632e-09
2.89253e-08 8.27919e-08 -3.34672e-09
7.17723e-08 7.12138e-08 -3.81336e-09
6.47537e-08 7.1999e-08 -3.99593e-09
1.13828e-07 5.9468e-08 8.07544e-09
1.12871e-07 5.92872e-08 7.08949e-09
1.65095e-07 3.67047e-08 1.00997e-08
1.65714e-07 3.66423e-08 9.8782e-09
-4.39183e-08 7.71175e-08 -2.35321e-08
-4.90429e-08 7.76346e-08 -2.52804e-08
-4.87966e-08 7.48012e-08 -2.50987e-08
1.27399e-07 5.09799e-08 -1.92041e-08
1.74396e-07 -1.951e-08 -8.1845e-08
2.69693e-07 -2.81093e-08 -1.03301e-07
-1.94776e-08 4.74095e-08 -2.38991e-09
4.86211e-08 7.56232e-08 2.50474e-09
4.79323e-08 7.41744e-08 1.55888e-09
-5.64907e-08 6.42379e-08 -2.57148e-08
-5.48309e-08 6.38441e-08 1.8495e-08
-1.31764e-07 -2.47317e-08 -4.59782e-07
-1.07867e-07 4.64578e-08 -2.99544e-08
9.87901e-08 6.05744e-08 -5.48975e-09
9.38169e-08 6.16968e-08 -6.31882e-09
-1.0413e-07 4.2867e-08 1.94354e-08
-1.05879e-07 4.2087e-08 1.92962e-08
-9.71547e-08 1.73688e-08 -1.17628e-08
-9.66099e-08 1.64785e-08 -1.14611e-08
-1.10489e-07 4.55915e-08 -3.08266e-08
-1.54544e-08 9.61701e-08 -8.772e-09
-4.67119e-08 7.63672e-08 -1.63049e-08
-5.29685e-08 7.31633e-08 -1.56814e-08
-1.23956e-08 9.80908e-08 -6.93094e-09
2.18638e-08 8.82094e-08 -4.91188e-09
1.01169e-07 7.13074e-08 3.58009e-09
3.62421e-08 7.49768e-08 -1.76052e-09
4.27019e-08 7.51262e-08 -2.16416e-09
-3.78536e-08 7.29681e-08 1.25034e-08
2.23756e-08 8.80293e-08 -5.46303e-09
8.11924e-08 7.09e-08 -2.03386e-08
8.09573e-08 7.24112e-08 -2.25612e-08
2.6278e-08 8.67392e-08 -3.98049e-09
-4.7666e-08 7.55039e-08 1.1568e-08
-1.32275e-08 6.16504e-08 -3.07746e-09
1.67594e-07 3.44045e-08 -5.12105e-09
1.69257e-07 3.3408e-08 -4.26313e-09
-7.52934e-08 6.14097e-08 -3.04828e-08
7.46538e-08 6.9191e-08 -4.18198e-09
-7.40316e-08 6.17716e-08 -3.02517e-08
-7.40991e-08 6.37956e-08 -3.06053e-08
5.57048e-08 8.20245e-08 9.96005e-10
-1.08915e-07 1.76903e-08 -1.38227e-08
8.47749e-08 7.19026e-08 5.1778e-09
9.01991e-08 7.09117e-08 4.86192e-09
2.97353e-07 -7.13425e-09 3.17142e-08
3.10739e-07 -1.05433e-08 3.26013e-08
-9.10794e-08 5.04104e-08 -5.1423e-09
-8.9683e-08 5.05224e-08 -6.25601e-09
1.24394e-07 5.21769e-08 6.70537e-09
2.51846e-07 7.68836e-09 -2.27923e-08
2.48676e-07 9.80602e-09 -2.48377e-08
1.25413e-07 5.24724e-08 8.10144e-09
3.05398e-07 -9.26883e-09 2.94619e-08
-1.01138e-07 4.21279e-08 1.28962e-08
-1.29524e-07 -1.29266e-08 -2.02657e-09
-1.2816e-07 -1.37481e-08 -2.64302e-09
-4.80754e-08 6.67409e-08 1.72692e-08
-4.59543e-08 6.73408e-08 1.62201e-08
1.15651e-07 6.01984e-08 5.26464e-09
1.14401e-07 6.1354e-08 4.1811e-09
-1.00692e-07 4.13665e-08 1.39099e-08
-9.78305e-08 4.32047e-08 1.4602e-08
-3.99273e-08 7.0144e-08 -2.04392e-08
2.56879e-08 -4.66761e-08 1.25768e-08
2.21017e-07 1.43047e-08 6.00927e-09
2.22497e-07 1.38142e-08 6.70398e-09
-3.67752e-09 -1.1069e-09 3.84127e-10
-3.95175e-08 6.99097e-08 -2.15321e-08
-6.26384e-08 7.19994e-08 -2.94212e-08
-6.34462e-08 7.14421e-08 -2.88673e-08
-6.3539e-08 6.93892e-08 -2.95125e-08
-5.47143e-08 -4.17473e-08 -4.218e-09
-5.91153e-08 -3.96051e-08 -3.79157e-09
-1.41586e-08 1.51555e-08 7.05185e-10
-5.94826e-08 -3.99231e-08 -4.64222e-09
-5.47263e-08 6.50792e-08 1.74286e-08
-4.14398e-08 -4.62768e-08 -1.5368e-09
-4.18837e-08 -4.623e-08 -2.27273e-09
-5.54151e-08 6.36995e-08 1.73288e-08
3.27772e-08 7.82995e-08 -1.85114e-09
1.42183e-09 9.90806e-08 -5.98844e-09
1.08374e-08 9.96886e-08 -5.64085e-09
2.66859e-08 7.69609e-08 -2.97242e-09
-5.51326e-08 6.35423e-08 2.02389e-08
-6.55986e-08 -4.34806e-08 -4.25294e-09
-6.61201e-08 -4.399e-08 -5.24128e-09
-5.33743e-08 6.4189e-08 1.95398e-08
-5.31121e-08 6.62277e-08 1.99317e-08
7.09355e-08 -4.27465e-08 7.22286e-09
7.04563e-08 -4.31125e-08 6.10575e-09
-3.94058e-08 -5.779e-08 -8.68108e-10
-4.11584e-08 -5.88771e-08 -1.96343e-09
1.64289e-07 3.78883e-08 -2.30599e-08
1.63632e-07 3.63305e-08 -1.98653e-08
-4.24065e-08 7.47126e-08 1.20991e-08
-4.54559e-08 -5.72153e-08 -1.52098e-09
-1.09251e-07 3.38972e-08 -2.16105e-08
-1.10076e-07 3.3779e-08 -2.21736e-08
1.53532e-07 -2.51891e-08 -1.19349e-08
-3.62117e-08 5.11003e-09 1.49559e-09
-3.39046e-08 5.02654e-09 -1.85598e-09
-3.2945e-08 3.24787e-09 -1.7909e-09
1.50211e-07 -2.55095e-08 -1.21815e-08
1.49184e-07 -2.47886e-08 -1.12106e-08
-9.56723e-09 5.25845e-08 3.67696e-09
-7.67798e-09 5.61415e-08 4.69979e-09
6.7918e-08 7.44823e-08 3.97916e-09
1.45537e-07 4.45132e-08 1.30356e-08
1.43341e-07 4.40837e-08 1.17705e-08
1.00599e-07 -2.08941e-08 -7.59221e-09
9.76627e-08 -1.90093e-08 -5.98106e-09
1.62475e-07 3.92558e-08 -9.9073e-10
1.64399e-07 3.84676e-08 3.71935e-10
-2.45611e-08 8.82352e-08 6.5452e-09
-2.73624e-08 8.83402e-08 6.93893e-09
-2.50606e-08 9.04271e-08 5.22447e-09
3.91034e-08 8.3916e-08 -1.14033e-09
3.49636e-08 8.58395e-08 -1.51533e-10
1.98841e-08 8.22876e-08 -4.86641e-09
1.91227e-08 8.1459e-08 -5.35941e-09
3.49787e-08 8.93826e-08 -2.71152e-09
2.94597e-08 9.15694e-08 -3.36171e-09
3.57259e-08 8.75779e-08 -9.7948e-10
-1.39312e-08 -5.27414e-08 2.94147e-09
-1.52204e-08 -5.40548e-08 1.79541e-09
8.10202e-09 -5.0396e-08 7.64494e-09
7.9572e-09 -5.11208e-08 6.94698e-09
3.31063e-08 8.58816e-08 7.45068e-10
-2.40346e-08 8.50779e-08 8.88695e-09
-2.31038e-08 8.60525e-08 7.20606e-09
-1.39343e-08 7.65383e-08 9.36545e-09
-1.29486e-08 7.85851e-08 8.79109e-09
-5.40232e-08 -1.96891e-08 -1.36644e-11
-2.07589e-08 8.42907e-08 9.24789e-09
1.17465e-07 2.11993e-08 2.79657e-08
1.07507e-07 2.03216e-08 2.52936e-08
-4.44654e-08 7.32109e-08 1.29083e-08
5.6753e-08 9.62559e-08 -1.37528e-09
1.69195e-08 4.25942e-08 1.11158e-08
-1.67672e-08 8.37372e-08 8.04295e-09
-1.06474e-07 4.82026e-08 -3.11849e-08
-1.1102e-07 4.51835e-08 -3.02699e-08
1.96115e-07 2.39802e-08 -1.90883e-10
-1.06542e-07 4.68648e-08 -3.11171e-08
-1.28423e-09 1.00576e-07 -5.44176e-09
8.06193e-09 1.01559e-07 -5.22581e-09
-1.32698e-07 -9.91108e-09 -2.55847e-09
-1.33845e-07 -9.2433e-09 -3.21406e-09
1.77672e-07 4.0884e-08 2.93364e-08
1.73416e-07 4.4311e-08 3.16936e-08
8.71103e-08 6.69962e-08 -5.26263e-09
-1.02947e-07 4.26936e-08 1.86439e-08
-1.02646e-07 4.11696e-08 1.78216e-08
-5.42902e-08 2.68438e-08 -6.18828e-09
-5.45759e-08 2.84004e-08 -6.24597e-09
-1.02987e-07 4.22608e-08 1.7506e-08
7.10134e-08 7.90598e-08 1.35871e-08
7.52855e-09 6.01032e-08 -1.12666e-08
7.13235e-09 5.93787e-08 -1.07633e-08
6.26087e-08 8.1897e-08 1.32067e-08
1.0311e-07 -2.88319e-08 -7.7239e-09
1.06554e-07 -2.85626e-08 -6.47064e-09
2.56963e-07 2.06617e-09 5.70178e-09
2.6247e-07 9.72138e-10 3.65417e-09
1.60051e-08 8.98777e-08 -1.93189e-09
1.62655e-07 3.98401e-08 4.63591e-09
9.70674e-08 6.59831e-08 -1.96698e-08
9.26545e-08 6.99825e-08 -2.00411e-08
2.47442e-08 8.90193e-08 2.02164e-09
2.4387e-08 8.77131e-08 -1.85594e-10
2.06118e-08 8.34373e-08 -4.78232e-09
2.94842e-08 9.44303e-08 -3.74498e-09
-1.16964e-07 2.56286e-08 1.60616e-08
-1.16132e-07 2.59389e-08 1.58883e-08
1.08009e-07 6.24541e-08 -3.37035e-09
1.09734e-07 6.66166e-08 2.27722e-09
1.11222e-07 6.51723e-08 3.18159e-09
1.12035e-07 6.49966e-08 3.24913e-09
-6.11759e-09 7.95947e-08 1.28156e-09
8.40607e-08 7.02368e-08 3.8624e-09
1.32761e-07 5.39629e-08 2.62896e-09
1.34514e-07 5.36765e-08 2.50031e-09
7.7174e-08 7.21711e-08 5.08858e-09
-2.20331e-08 -6.3939e-08 7.8342e-10
-1.77175e-08 -6.22769e-08 -2.1903e-10
7.53974e-08 7.30915e-08 3.75466e-09
1.54409e-07 3.89703e-08 -8.1793e-09
9.99848e-10 2.51004e-08 4.44548e-09
6.45926e-10 2.24814e-08 3.8341e-09
1.53444e-07 3.84793e-08 -6.25345e-09
1.59026e-07 3.7216e-08 -7.30349e-09
1.61268e-07 3.5783e-08 -5.55882e-09
1.51616e-07 3.99854e-08 -7.51696e-09
-3.658e-09 2.26068e-08 -4.05264e-09
-3.95248e-09 2.54709e-08 -4.61002e-09
5.83913e-08 9.56351e-08 -1.53859e-09
-4.284e-09 -5.10658e-08 -2.92944e-09
1.01528e-09 -5.19027e-08 -2.98638e-09
5.22253e-08 9.70863e-08 -2.46647e-09
-3.49392e-08 9.30831e-08 -6.68266e-09
4.71929e-08 9.87217e-08 -1.82577e-09