# vtk DataFile Version 2.0
S, Created by Mohamad Ibrahim Cheikh
ASCII
DATASET UNSTRUCTURED_GRID
POINTS 4978 double
-103.348 -40.5768 -25.4149
-135.794 25.634 -26.1791
-135.368 28.4575 -23.3831
-111.051 34.335 -30.1878
-114.499 33.8132 -29.1832
-74.8943 -53.218 -9.00724
-73.9474 -53.8613 -5.43225
-90.924 45.5904 -22.5698
-93.0756 43.6006 -25.2666
-117.121 -16.647 -40.5402
-15.622 -11.6169 58.6103
-118.101 -12.9086 -41.5426
-104.009 -34.0009 -33.4594
14.1847 3.66854 -59.6817
16.5342 1.17049 -59.709
-101.031 -34.9649 -33.5829
-60.1594 46.9329 -30.8904
-59.8803 49.0484 -27.4822
39.0872 -4.089 58.2772
-139.634 28.8931 19.4462
-69.6847 24.7745 -48.9053
-66.2899 25.0815 -49.3248
-142.281 28.9148 16.898
-74.3282 -19.7851 -50.3208
-165.389 12.1437 -10.1839
-169.245 1.26787 9.57046
-24.8327 8.89232 -58.6978
-28.1764 8.54495 -58.5644
-168.003 -1.65311 11.9069
4.55571 -18.0288 57.2051
1.91383 -59.9827 1.27473
-1.18791 -59.8861 3.67208
118.932 -21.5876 37.447
115.315 -23.0444 37.9604
-143.483 0.688349 32.8493
124.237 -36.9836 18.5085
-133.967 -27.3888 -25.5468
-137.351 -26.2451 -24.5271
-8.20959 33.072 -49.9799
-116.748 34.7362 26.9202
-97.7307 48.5881 8.3583
-101.571 47.2496 10.2197
-120.756 34.5596 24.9081
141.632 31.9768 -11.0293
-155.503 -9.80968 -23.3096
-152.712 -13.0848 -23.9518
-116.856 39.567 19.0441
-120.12 -40.9537 -12.5035
-116.181 -42.3537 -12.3956
59.6124 -53.0937 -18.6012
55.5329 -53.9256 -17.7336
3.33173 11.3287 -58.9093
7.1854 12.0448 -58.7248
-5.19062 11.6381 -58.8324
-80.9336 50.9523 14.2107
-84.0204 50.9028 12.0269
-113.187 40.0224 20.7308
-86.8612 -26.7679 -44.2695
-84.1863 -28.9419 -43.528
-95.7996 -15.7219 -47.2149
-146.277 -0.678142 31.3047
-140.605 -5.99047 33.8195
0.858044 -15.3745 57.996
-90.0281 -33.8364 -38.2469
-151.393 14.4649 24.1822
-91.8953 -36.2665 -35.3677
69.7279 -44.6949 -31.7354
73.2384 -44.8831 -30.4767
106.668 18.5146 43.1767
108.894 15.2689 43.7624
46.154 -51.6272 -25.9584
50.0996 -50.6626 -26.9446
123.574 40.6197 -8.97317
125.17 39.0001 -12.6841
162.371 6.84131 18.0413
164.814 4.7673 15.8651
-3.45297 26.8637 53.6366
-5.77656 23.9382 54.9807
51.5717 -46.4407 33.4313
54.9329 -46.4162 32.8039
121.563 -26.5215 32.9764
63.9943 -52.2916 19.0846
-79.6578 -38.0775 -37.0575
-64.6743 35.0617 -43.1114
-68.737 33.4789 -43.5973
-94.1242 -48.1802 -13.93
53.7117 -1.00519 -56.9719
-97.7932 -47.4644 -13.2777
122.178 -23.5347 34.9084
-102.616 47.4171 -7.90426
-95.5051 49.3169 -7.15284
-99.2514 48.5501 -6.07314
-73.038 -36.3582 40.3112
-72.5143 -33.8433 42.5544
105.876 -34.6711 32.024
108.401 -31.7402 33.9699
106.972 -29.0614 36.8037
-51.9366 38.4742 42.3025
-84.8265 -49.7953 15.4758
-85.6048 -48.4208 18.9278
-154.746 25.6488 -3.23553
-150.797 28.2579 -4.18784
-57.0999 40.9529 39.0346
-52.868 41.337 39.3582
-80.9259 52.3158 -7.82869
-76.5331 52.9612 -8.83311
-154.584 -25.8207 2.78721
-153.93 -25.543 6.83668
-156.503 -22.8425 8.92078
-77.4178 -40.6178 -34.8773
9.91724 40.5384 -44.0976
14.441 41.0518 -43.4652
-100.017 -48.7367 0.243951
-83.6519 -37.7367 -36.3213
-134.856 10.9373 35.4106
-132.697 8.93924 36.9369
-133.542 5.29963 37.2643
-136.562 -16.7031 -32.2157
-69.3786 34.1026 42.9852
-72.0985 36.3013 40.5687
-76.4661 34.983 40.7474
-78.6272 32.3415 42.3929
127.435 -37.1662 15.182
126.852 -38.7498 11.3328
123.093 -40.2515 11.1724
-64.9755 -54.5892 10.1566
-100.671 -37.3683 -31.0301
125.965 4.71666 -40.4376
126.56 0.894637 -40.4753
-97.489 -38.2251 -31.2296
-98.5042 -42.0442 -25.3845
-80.4078 41.7257 -32.6715
-96.1183 -40.7828 -28.3849
-104.531 -33.2377 34.0224
-108.286 -32.5174 33.2726
-75.3371 -40.0305 36.093
-110.43 -34.763 29.976
43.779 -32.6536 -47.9489
43.8303 -27.495 -51.0767
-70.5451 30.7446 45.2272
45.6248 -29.9809 -49.4601
-127.449 -38.4441 -11.5523
-125.63 -39.9851 -8.30253
-122.066 -41.207 -8.82199
-126.133 -7.24683 -39.9968
-122.305 -7.83595 -41.3193
-119.703 -5.67581 -42.5857
-144.467 -25.4623 19.9137
-145.407 -22.473 22.5046
-148.947 -20.6027 21.4351
-151.807 -20.9605 18.4198
-145.11 -26.72 -17.5528
19.9833 -41.083 -43.1659
24.5272 -41.7285 -42.2502
152.049 5.12581 27.2648
152.931 1.43957 27.1043
-143.543 -25.5331 -20.6279
-136.746 -1.8472 -36.1561
-45.6734 22.9719 -53.0745
-45.8001 26.1735 -51.5571
-136.922 -5.70395 -35.6689
-138.749 0.531547 -35.2538
40.8189 22.7815 53.6378
40.8633 28.372 50.8979
-83.2049 -42.9416 -30.1406
-79.1071 -43.2627 -31.0194
85.3482 -43.9549 27.8599
-85.7206 -51.963 0.4993
81.364 -44.4799 28.4791
44.7776 53.6024 -21.9389
40.3393 53.7677 -22.579
42.7817 25.2794 52.3152
-109.49 46.1745 -0.490757
-106.351 46.6837 -5.99349
-105.985 47.1172 -2.18335
84.2389 -42.6308 -30.23
86.8277 -43.5322 -27.9637
-147.779 -30.3027 2.84791
15.1976 8.04888 59.2194
-15.353 -52.3243 28.8672
-15.4601 -50.3529 32.1765
12.4917 6.1999 59.5185
-77.1755 18.7141 50.2056
-27.4564 56.3871 18.1163
-24.0368 57.035 16.6216
12.3677 2.97798 59.7696
-110.167 -43.076 16.0811
-107.573 -43.0659 18.1279
-113.984 -38.6931 22.6329
-113.264 -41.7578 16.9029
-115.196 -39.9135 19.5523
-12.8065 47.1108 36.8848
-92.1215 39.4063 31.7519
-12.7482 10.7393 58.8623
-9.38532 48.0883 35.7314
-89.2683 43.0278 27.8031
-89.065 41.2331 30.4741
-32.5531 -44.9429 -38.0842
-36.1627 -44.2161 -38.5335
3.99516 -57.3079 -17.7157
91.0193 45.1953 -23.3055
90.6125 43.3783 -26.7044
22.0635 -16.441 57.1847
24.7807 -18.7698 56.3251
76.521 34.5539 -41.0994
-37.4224 -41.483 -41.3245
130.873 -35.2817 16.0719
-139.816 -34.2859 5.58689
-60.9999 -46.6581 31.1043
68.1464 -53.8838 11.3133
69.8546 -54.3203 7.20479
-61.8943 -48.6256 27.6865
-65.9773 -53.5601 14.0852
-63.0099 -53.2716 16.6153
-33.6041 -49.4837 -31.8295
-31.6097 -47.6132 -34.7946
55.8719 40.28 -39.9418
56.795 42.8646 -36.9826
-144.365 -32.3142 2.06552
-115.226 -25.8813 36.1206
-124.894 -10.5462 39.738
-14.171 -14.8372 -57.9247
-17.8149 -13.2543 -58.1848
-122.565 -13.9457 39.5779
-142.674 -32.8049 5.6345
-154.74 -17.3809 -19.143
-152.725 -16.0955 -22.0308
115.121 -43.2469 10.3533
111.443 -44.5344 9.809
-129.438 38.9117 -5.8914
122.517 -6.31575 41.5024
120.217 -3.77108 42.62
-135.714 36.4174 -4.3458
56.8434 -6.08212 56.2799
53.5924 -4.28345 56.8333
-131.997 38.117 -3.74417
158.649 -21.6905 6.93485
157.605 -21.4836 9.87195
-73.6925 14.7518 -52.13
-77.7033 14.3834 -51.5163
16.9329 59.352 6.49858
-152.656 -4.24889 26.9989
-149.256 -6.35146 28.85
-117.825 29.609 31.9953
-128.046 30.4945 -25.7453
-18.1522 -28.8193 52.2409
-84.9236 -44.6575 -26.8843
-89.5674 -43.9189 -26.2485
152.155 -22.4392 16.1919
154.889 -20.9447 14.9739
-104.359 23.096 -41.6323
46.2931 -4.30191 -57.6119
-106.957 20.6564 -42.1042
-120.877 32.8575 -27.0476
-124.147 32.9944 -24.9895
-93.6242 35.2377 35.8493
134.047 -21.7489 -30.4491
-91.0522 37.175 34.6849
-128.557 27.9503 -28.2036
77.2264 -52.7152 9.53762
52.4889 -32.9688 -46.645
56.3424 -33.2741 -45.8715
80.7445 34.2037 -40.3971
-124.07 39.6349 12.0217
-122.636 39.0175 15.3748
81.8341 29.3071 -43.8318
83.1416 31.7614 -41.7725
49.0097 10.4486 -56.5399
-69.7842 -51.0639 19.9068
-66.0105 -50.6784 22.3213
-29.0643 14.814 -57.2462
-144.686 -30.913 9.0273
-133.887 13.8672 -34.8298
-28.9079 -36.3389 46.6602
-131.406 10.764 -37.0151
-132.025 17.4495 -34.0816
-139.782 -16.6084 -30.5296
42.9606 2.43073 -58.0357
-141.075 -13.3114 -31.4047
-3.93281 4.4328 59.8202
85.0785 -35.3539 -38.2614
-117.918 12.7982 41.6402
-101.463 -29.4765 -38.3507
-98.1344 -31.1933 -38.0522
90.4306 -31.9275 -39.7425
88.801 -34.5307 -37.9766
-148.518 -8.99164 -28.6129
45.8024 -24.1878 -52.5178
49.0541 -23.4872 -52.4763
-144.4 -2.84077 -32.2362
-145.158 -8.95855 -30.6612
-143.287 -6.6322 -32.2871
-132.325 25.7267 -28.1858
83.1775 -48.6403 -19.6751
-5.433 56.7919 -19.263
-10.0651 56.4101 -20.137
83.2709 -46.8517 -23.5798
86.4082 -45.5156 -24.7841
-136.953 -35.6632 -5.64539
-132.935 -37.2992 -6.72846
109.486 -38.135 -26.0416
104.494 -36.7367 -30.2266
-131.016 3.46938 38.555
-131.248 0.15415 38.6141
105.486 -38.3854 -27.6456
-56.9713 17.2703 53.8922
8.54545 1.52764 59.906
169.723 -6.79902 -5.21254
169.715 -4.15768 -7.51155
-52.855 17.4961 54.3311
100.652 48.5656 -1.05522
107.513 46.7424 -0.00682189
104.421 47.5368 -2.30996
110.034 -22.1793 -40.3211
106.09 -22.6765 -41.3261
-7.45841 5.51989 59.6885
104.559 -19.7895 -43.2427
-59.885 38.6116 40.8668
-57.9145 42.9889 36.6241
-49.6831 44.1737 36.6945
-50.8948 46.2557 33.8126
-150.611 -27.155 9.2471
-148.026 -29.4704 6.9934
92.6866 47.6763 -16.5899
88.5542 48.9338 -15.6662
51.6531 -57.1839 -1.83386
55.0314 -56.8259 -0.2281
96.1708 -43.3009 -24.3461
98.6604 -41.1604 -26.7234
-115.167 -42.1388 14.1611
94.9846 47.9859 -13.8855
-74.7265 47.1772 26.2808
-87.2889 46.3818 22.7137
-82.289 45.1502 27.0637
-78.4752 47.1257 25.0045
19.6947 1.75103 59.5772
-108.161 36.4352 -28.9869
-104.602 36.8849 -29.9995
-30.809 -38.2819 -44.9254
-33.6416 10.3961 -57.9082
-29.9275 11.0823 -58.0304
145.07 14.4531 28.5412
144.276 18.0244 26.9582
-28.141 -40.6709 -42.9991
-28.8033 -43.3459 -40.2438
63.6563 -54.3565 12.2183
60.5916 -55.4129 8.94122
-127.064 38.8355 10.7331
-158.315 1.88589 -22.9784
-142.629 4.66391 32.9808
-159.2 4.7501 -21.7847
-108.225 43.9044 15.4423
-116.703 42.5117 -11.1959
-119.312 40.9095 -13.551
-103.092 44.1874 18.61
-104.252 45.0093 15.6065
58.6585 -11.4788 55.1995
55.8048 -10.0142 55.8432
-142.8 -29.8257 -14.6267
-139.042 -31.4666 -15.5885
2.95985 13.204 58.5199
-0.236868 15.4607 57.9738
-70.6718 43.0516 -33.6912
-74.2685 42.4897 -33.4566
50.0072 1.18335 -57.3798
46.5326 -0.307647 -57.7479
-76.9598 43.5063 -31.3384
-71.092 -54.458 -3.94641
-151.819 -23.0184 -15.7589
-148.695 -25.7832 -15.1108
26.8964 -51.4367 29.4228
24.7821 -47.9302 35.0359
-103.741 -38.4153 -28.4022
137.894 -34.1531 -10.2786
135.155 -35.8456 -8.87277
-141.731 -18.4214 -28.3089
-18.312 24.7961 54.2596
-16.2655 27.8231 52.8534
23.9387 -50.2371 31.7187
-113.351 44.6858 5.49508
-109.44 46.0585 3.50582
-135.09 -9.19339 35.7947
52.3644 16.6937 54.6409
-133.143 -6.10698 37.3153
-133.723 -2.28276 37.4909
-53.4831 -13.4655 55.3939
-56.8447 -12.1187 55.295
90.4301 34.943 37.1192
92.88 32.6233 38.4654
[...]
POINT_DATA 4978
VECTORS F double
-7.26233e-07 2.9041e-07 -1.02115e-07
5.18739e-07 4.12644e-07 7.46286e-08
5.95002e-07 4.06438e-07 7.29329e-08
6.4974e-07 3.28446e-07 8.09456e-08
6.43398e-07 3.25253e-07 6.78082e-08
-9.0331e-07 1.64218e-07 -5.07267e-08
-9.20717e-07 1.59174e-07 -4.38071e-08
8.34784e-07 2.41174e-07 7.54466e-08
7.87227e-07 2.6079e-07 9.49947e-08
-3.27579e-07 4.08728e-07 -5.19743e-08
-2.6346e-07 1.23878e-07 1.59565e-08
-2.45887e-07 4.33912e-07 -4.92515e-08
-6.12223e-07 3.28784e-07 -1.01114e-07
-3.42403e-08 2.84961e-08 7.55146e-10
-5.68109e-08 3.99368e-09 -1.84791e-09
-6.12933e-07 3.20886e-07 -1.08342e-07
8.26765e-07 1.99336e-07 1.05735e-07
8.90193e-07 1.93327e-07 1.07576e-07
-1.16094e-07 -8.75748e-08 3.38843e-09
6.31568e-07 3.76005e-07 -3.46039e-09
3.78864e-07 2.94724e-07 8.32108e-08
3.82842e-07 3.2918e-07 1.04396e-07
6.33184e-07 3.85996e-07 -7.78525e-09
-3.76608e-07 3.23034e-07 -5.89065e-08
3.46657e-07 6.12541e-07 4.11694e-08
4.58707e-08 6.62172e-07 1.16081e-08
3.91273e-08 2.16959e-07 3.08411e-08
3.70231e-08 2.13606e-07 2.89857e-08
-3.64875e-08 6.34002e-07 2.50013e-08
-3.50074e-07 2.75066e-08 1.20824e-08
-1.00574e-06 -4.09642e-09 -7.89193e-09
-1.00357e-06 2.3028e-09 -2.18823e-09
-4.23947e-07 -2.96527e-07 -6.09972e-09
-4.29396e-07 -2.94295e-07 -1.8962e-08
3.13819e-08 4.64873e-07 7.0414e-09
-7.24824e-07 -2.95468e-07 5.24698e-09
-5.37016e-07 4.03293e-07 -8.76055e-08
-5.32757e-07 4.10204e-07 -7.3688e-08
4.54586e-07 1.2129e-07 7.11167e-08
6.89079e-07 2.94054e-07 -1.35662e-08
9.11996e-07 2.19172e-07 3.14357e-08
8.96449e-07 2.3235e-07 1.65286e-08
6.78779e-07 2.90875e-07 -7.0652e-10
6.56777e-07 -3.7495e-07 -5.45368e-08
-2.43989e-07 5.60878e-07 -3.67688e-08
-2.95611e-07 5.15008e-07 -5.06036e-08
7.70341e-07 2.71071e-07 1.55035e-08
-7.60205e-07 2.92807e-07 -6.49481e-08
-7.62866e-07 2.76997e-07 -7.10829e-08
-9.12596e-07 -1.30165e-07 1.34755e-08
-9.17081e-07 -1.20033e-07 1.34151e-08
8.49594e-08 6.09633e-08 1.23119e-08
8.69279e-08 6.24799e-08 1.4117e-08
9.20491e-08 1.12378e-07 2.12361e-08
9.59775e-07 1.86858e-07 -7.71009e-10
9.47397e-07 1.88536e-07 1.23289e-08
7.8279e-07 2.72398e-07 -2.64222e-09
-4.87832e-07 3.48554e-07 -9.35725e-08
-5.08661e-07 3.18689e-07 -9.1456e-08
-2.80581e-07 3.79969e-07 -5.68273e-08
2.03275e-08 4.63683e-07 2.16742e-08
-1.03978e-07 4.47e-07 2.62545e-08
-3.33945e-07 5.2052e-08 1.44038e-08
-6.08813e-07 3.07438e-07 -9.65409e-08
3.49223e-07 4.8364e-07 -2.16295e-08
-6.41646e-07 3.08155e-07 -1.11879e-07
-7.7843e-07 -1.74983e-07 3.70479e-08
-7.7617e-07 -1.78694e-07 3.4812e-08
2.97348e-07 -2.63898e-07 2.32282e-08
2.49999e-07 -2.98049e-07 2.78328e-08
-8.77935e-07 -9.93037e-08 6.39488e-09
-8.73518e-07 -1.08688e-07 5.51705e-09
7.52139e-07 -2.93063e-07 -5.8531e-08
7.17188e-07 -3.04894e-07 -7.1008e-08
1.56097e-07 -5.62167e-07 4.11843e-08
1.20545e-07 -5.90148e-07 2.40247e-08
3.44855e-07 7.37889e-08 -3.42387e-08
2.97643e-07 1.04071e-07 -4.14829e-08
-7.93072e-07 -1.10322e-07 -3.47521e-09
-7.90133e-07 -1.11996e-07 3.51791e-09
-5.21787e-07 -3.04039e-07 -9.03665e-09
-8.89078e-07 -1.34781e-07 -4.3131e-09
-6.66334e-07 2.7545e-07 -1.07677e-07
5.50711e-07 2.71315e-07 1.19511e-07
5.49851e-07 2.65977e-07 9.81131e-08
-8.33422e-07 2.21532e-07 -7.67892e-08
-6.33508e-08 -1.45751e-07 -4.74067e-09
-8.33056e-07 2.29037e-07 -6.75845e-08
-4.40731e-07 -3.10527e-07 -2.05035e-08
8.94396e-07 2.47878e-07 6.54666e-08
9.18472e-07 2.27194e-07 6.50589e-08
9.10189e-07 2.34275e-07 5.1755e-08
-6.41327e-07 2.39935e-07 7.41485e-08
-5.89435e-07 2.38596e-07 6.67862e-08
-6.42884e-07 -2.42198e-07 -2.00212e-09
-5.91891e-07 -2.70007e-07 -2.10473e-08
-5.32682e-07 -2.49427e-07 -7.40647e-09
6.79089e-07 2.06083e-07 -8.53601e-08
-8.58294e-07 1.87743e-07 2.81293e-08
-8.2421e-07 1.92899e-07 3.71079e-08
6.2764e-07 4.68112e-07 3.57691e-08
6.56137e-07 4.35833e-07 4.8294e-08
7.35096e-07 2.04954e-07 -8.3381e-08
7.38793e-07 2.12658e-07 -1.01854e-07
9.67868e-07 1.91325e-07 5.36689e-08
9.74987e-07 1.83277e-07 6.46658e-08
-5.8899e-07 4.32692e-07 9.20926e-09
-5.76831e-07 4.28585e-07 1.12483e-08
-5.34348e-07 4.59755e-07 2.95655e-08
-7.08042e-07 2.459e-07 -9.39616e-08
6.07522e-07 2.77459e-08 4.2233e-08
6.11077e-07 1.70445e-08 4.09535e-08
-8.58151e-07 2.15461e-07 -2.85631e-08
-6.67347e-07 2.74606e-07 -9.7141e-08
2.40566e-07 4.1738e-07 -1.67533e-08
2.14483e-07 3.97588e-07 -1.88692e-09
1.29449e-07 4.14968e-07 -2.22175e-09
-3.50538e-07 4.68212e-07 -6.08401e-08
6.35229e-07 2.34845e-07 -6.07961e-08
6.62871e-07 2.52044e-07 -8.1306e-08
6.66021e-07 2.30626e-07 -4.49845e-08
6.0608e-07 2.61963e-07 -6.22296e-08
-7.25054e-07 -3.02964e-07 3.42027e-09
-7.62589e-07 -3.03404e-07 7.61263e-09
-7.71118e-07 -2.86612e-07 7.52829e-09
-9.27977e-07 1.37232e-07 1.07907e-08
-6.71807e-07 3.1055e-07 -1.07149e-07
8.37862e-08 -4.10689e-07 -1.59505e-08
-3.2291e-09 -4.26164e-07 -1.06563e-08
-6.72451e-07 3.01134e-07 -1.11594e-07
-7.29014e-07 2.7174e-07 -1.03746e-07
7.42081e-07 2.58413e-07 1.06435e-07
-7.24713e-07 2.79817e-07 -1.01593e-07
-5.77989e-07 2.89245e-07 6.51648e-08
-5.78388e-07 2.87074e-07 5.01069e-08
-7.03463e-07 2.23463e-07 6.80771e-08
-6.11263e-07 2.92379e-07 6.33828e-08
-5.93405e-07 -1.01335e-07 2.6791e-09
-5.10137e-07 -1.00069e-07 2.73744e-10
5.41091e-07 2.56299e-07 -7.09001e-08
-5.49004e-07 -1.23218e-07 1.2689e-08
-7.23417e-07 3.13212e-07 -6.52353e-08
-7.54919e-07 3.00693e-07 -4.96522e-08
-7.57877e-07 2.8784e-07 -6.06737e-08
-1.52376e-07 4.31486e-07 -1.93499e-08
-1.50723e-07 4.42808e-07 -2.93572e-08
-1.27246e-07 4.30019e-07 -1.35247e-08
-5.28864e-07 3.99257e-07 4.07876e-08
-4.5167e-07 4.15191e-07 5.7325e-08
-4.4212e-07 4.33328e-07 4.03845e-08
-4.50109e-07 4.36131e-07 4.21383e-08
-5.6269e-07 4.19799e-07 -6.95409e-08
-7.32626e-07 -3.09615e-08 -1.20555e-08
-7.307e-07 -3.79165e-08 -1.44838e-08
9.41009e-08 -4.71319e-07 2.43636e-08
-4.1058e-09 -4.97341e-07 2.9253e-08
-5.39635e-07 4.21448e-07 -6.19355e-08
-2.95439e-08 4.75543e-07 -1.06162e-08
2.88142e-07 2.86975e-07 9.38521e-08
3.71713e-07 2.88458e-07 1.06012e-07
-1.27921e-07 4.76504e-07 -1.60829e-08
2.76508e-09 5.00254e-07 6.20963e-09
3.41496e-07 -9.98566e-08 1.05958e-08
4.38356e-07 -9.91557e-08 1.21865e-08
-7.50119e-07 2.45151e-07 -9.57541e-08
-7.49388e-07 2.45408e-07 -1.08297e-07
-7.74307e-07 -1.84404e-07 -5.3162e-10
-8.84659e-07 1.78409e-07 -2.67054e-08
-7.79113e-07 -1.85471e-07 -1.7166e-08
9.12155e-07 -1.12606e-07 -4.7201e-08
9.11281e-07 -1.03736e-07 -4.7708e-08
3.87869e-07 -1.2744e-07 2.27485e-08
8.85228e-07 2.57423e-07 4.13859e-08
8.83652e-07 2.53217e-07 5.26866e-08
8.97394e-07 2.49651e-07 5.43919e-08
-7.55279e-07 -2.05464e-07 3.20821e-08
-7.59914e-07 -2.10329e-07 3.85569e-08
-6.54128e-07 3.90875e-07 3.52309e-09
5.40492e-08 -1.45478e-08 2.79288e-10
-8.8934e-07 4.8926e-08 3.07758e-08
-8.48758e-07 5.23293e-08 3.19634e-08
3.6701e-08 6.93974e-09 -1.66576e-09
3.00904e-07 2.75867e-07 -4.62009e-08
1.08805e-06 8.03262e-08 -4.81331e-08
1.099e-06 7.00816e-08 -4.5904e-08
-3.87425e-08 7.8292e-09 5.91542e-10
-7.57763e-07 2.43766e-07 1.74281e-08
-7.66676e-07 2.48679e-07 3.37982e-08
-6.91687e-07 2.70068e-07 3.52379e-08
-7.53535e-07 2.58444e-07 2.03012e-08
-7.16891e-07 2.73125e-07 4.0457e-08
7.88719e-07 1.06275e-07 -1.02213e-07
7.56343e-07 2.40412e-07 -2.97182e-08
6.55016e-08 1.17433e-07 -1.96885e-08
7.87352e-07 1.04734e-07 -1.15635e-07
8.20939e-07 2.25513e-07 -2.63073e-08
7.73466e-07 2.21374e-07 -2.27775e-08
-7.71724e-07 1.34795e-07 -7.8313e-08
-7.72593e-07 1.44582e-07 -7.71374e-08
-9.63479e-07 -6.57802e-10 -2.44735e-08
7.60472e-07 -2.33189e-07 -8.86049e-08
7.133e-07 -2.34487e-07 -8.45846e-08
-3.33923e-07 -3.66088e-08 5.24799e-09
-3.52722e-07 -5.95862e-08 -8.57748e-10
5.54492e-07 -2.36453e-07 -7.24049e-08
-7.18454e-07 1.64924e-07 -8.59051e-08
-7.11805e-07 -3.22906e-07 7.56735e-10
-6.84341e-07 3.42367e-07 4.35714e-09
-7.96461e-07 1.58311e-07 4.62477e-08
-9.21843e-07 -1.41069e-07 7.91319e-09
-9.30738e-07 -1.46185e-07 2.63124e-09
-8.33819e-07 1.59402e-07 5.17494e-08
-9.00301e-07 1.41096e-07 2.02387e-08
-9.04998e-07 1.40465e-07 3.01865e-08
-8.42338e-07 1.22004e-07 -8.07996e-08
-8.2349e-07 1.20012e-07 -7.26365e-08
6.3875e-07 -1.61263e-07 -5.32399e-08
7.04094e-07 -1.69387e-07 -6.39488e-08
-6.6778e-07 3.65021e-07 -3.42125e-09
-4.62448e-07 3.35626e-07 5.98779e-08
-1.83415e-07 4.00644e-07 3.57547e-08
-3.20465e-07 1.42063e-07 -2.6791e-08
-3.15839e-07 1.57729e-07 -2.40914e-08
-2.34231e-07 3.62648e-07 3.89797e-08
-6.78058e-07 3.61784e-07 4.37102e-09
-4.06069e-07 5.12715e-07 -6.36658e-08
-3.80551e-07 5.11007e-07 -5.03645e-08
-8.14276e-07 -2.62509e-07 1.1946e-08
-8.21092e-07 -2.49197e-07 1.06836e-08
7.94109e-07 3.32789e-07 6.20076e-08
-1.37263e-07 -3.37609e-07 -1.76826e-09
-9.99935e-08 -3.05383e-07 7.50986e-09
7.67238e-07 3.55913e-07 4.91838e-08
-1.23161e-07 -1.51722e-07 -1.16711e-09
-1.1506e-07 -1.34458e-07 3.14933e-09
7.79865e-07 3.35592e-07 5.05131e-08
-5.47125e-07 -4.91412e-07 -4.63439e-09
-5.41291e-07 -4.86843e-07 -1.50096e-09
1.97444e-07 3.45418e-07 6.35755e-08
1.95267e-07 3.36479e-07 5.78868e-08
1.22875e-06 -4.18072e-08 -1.01403e-08
-8.62724e-08 5.10167e-07 2.05686e-08
-1.09041e-07 4.82566e-07 3.71762e-08
5.83688e-07 3.08142e-07 -2.20075e-08
6.14938e-07 3.81498e-07 7.74379e-08
-5.27107e-07 9.01954e-08 2.73345e-08
-7.69379e-07 2.41178e-07 -1.03081e-07
-7.69477e-07 2.47839e-07 -9.32314e-08
-5.25305e-07 -4.51119e-07 -2.08403e-08
-5.09053e-07 -4.66683e-07 -8.11528e-09
3.97872e-07 3.49212e-07 7.16283e-08
-1.47699e-07 -1.2327e-07 -5.32527e-09
3.7091e-07 3.71936e-07 6.71191e-08
6.44302e-07 3.56836e-07 8.09675e-08
6.37656e-07 3.51948e-07 7.68572e-08
6.83603e-07 2.50928e-07 -2.80783e-08
-4.29084e-07 -3.89624e-07 4.70364e-08
7.0918e-07 2.29455e-07 -1.8008e-08
5.39707e-07 3.8758e-07 8.2918e-08
-9.11391e-07 -1.63117e-07 1.89769e-09
-5.95754e-07 -1.45282e-07 2.06118e-08
-5.89842e-07 -1.36183e-07 1.00878e-08
5.55046e-07 -2.32255e-07 -6.08258e-08
7.95481e-07 3.00346e-07 1.48712e-08
7.81305e-07 2.91898e-07 2.22021e-08
4.6653e-07 -2.43477e-07 -5.61601e-08
5.24917e-07 -2.59717e-07 -6.95668e-08
1.17429e-07 -1.36125e-07 -1.26945e-08
-8.62113e-07 1.5742e-07 3.38109e-08
-8.65521e-07 1.57374e-07 4.39412e-08
1.51372e-07 2.23491e-07 4.84252e-08
-6.40207e-07 3.73992e-07 2.4477e-08
2.67553e-07 4.63733e-07 5.87163e-08
-6.53791e-07 1.20881e-07 4.4553e-08
2.11355e-07 4.31789e-07 3.37026e-08
3.53919e-07 4.24931e-07 4.97119e-08
-3.49122e-07 4.53114e-07 -5.08018e-08
-4.43284e-08 -1.00275e-07 -8.2174e-09
-2.79112e-07 4.82719e-07 -5.11087e-08
-1.43347e-08 7.6803e-08 -5.80658e-09
-6.23626e-07 -2.29359e-07 4.2161e-08
2.51283e-07 3.57926e-07 -2.28911e-08
-5.41655e-07 3.49141e-07 -9.2909e-08
-5.45222e-07 3.35135e-07 -1.02584e-07
-5.63818e-07 -2.50727e-07 4.43606e-08
-6.20226e-07 -2.28305e-07 3.00359e-08
-1.99065e-07 4.9969e-07 -3.05292e-08
-4.53843e-07 -1.27123e-07 1.00903e-08
-4.52399e-07 -1.22855e-07 3.2131e-09
-6.10539e-08 5.207e-07 -1.2405e-08
-1.98033e-07 5.08426e-07 -3.37722e-08
-1.54734e-07 4.90211e-07 -1.66272e-08
5.22352e-07 4.12864e-07 7.66141e-08
-8.52006e-07 -1.91921e-07 3.3493e-08
1.03555e-06 5.04904e-08 1.131e-07
1.03653e-06 5.37664e-08 8.71876e-08
-8.13223e-07 -1.92906e-07 3.1701e-08
-8.02879e-07 -2.06773e-07 3.70404e-08
-7.11513e-07 3.39603e-07 -3.21656e-08
-7.18684e-07 3.22215e-07 -4.78419e-08
-6.88544e-07 -2.6483e-07 3.34086e-08
-6.51284e-07 -2.5568e-07 3.51042e-08
1.112e-07 3.95288e-07 1.06923e-08
2.66219e-08 3.99094e-07 9.48518e-09
-6.96312e-07 -2.68262e-07 4.72027e-08
2.53216e-07 2.44586e-07 -4.56078e-08
-4.49423e-08 1.73467e-08 3.42665e-10
-2.11517e-07 -6.60224e-07 1.79468e-08
-1.26441e-07 -6.59053e-07 1.50105e-08
2.56268e-07 2.72307e-07 -5.71685e-08
8.3214e-07 -2.11965e-07 -3.81061e-08
8.16133e-07 -2.29825e-07 -3.03758e-08
8.27568e-07 -2.24889e-07 -4.80235e-08
-4.0528e-07 -2.9299e-07 2.57612e-08
-4.09646e-07 -3.10749e-07 4.17675e-08
-1.36666e-08 8.47998e-08 -8.05105e-09
-3.55704e-07 -2.89402e-07 2.71447e-08
7.00479e-07 2.32137e-07 -9.36606e-08
7.83846e-07 2.12051e-07 -9.71527e-08
7.98365e-07 1.74734e-07 -7.80109e-08
8.38466e-07 1.81365e-07 -9.35967e-08
-5.93288e-07 4.1311e-07 3.01155e-08
-6.28091e-07 3.88399e-07 9.12499e-09
8.11905e-07 -2.21255e-07 -8.05149e-08
8.14606e-07 -2.06106e-07 -8.00518e-08
-9.68623e-07 -1.07257e-07 4.40678e-09
-9.64662e-07 -1.14381e-07 2.40736e-09
-7.70744e-07 -2.26382e-07 2.98976e-08
-7.3385e-07 -2.4618e-07 4.74831e-08
-7.53234e-07 2.5814e-07 1.81846e-08
8.09617e-07 -2.18197e-07 -7.60271e-08
8.9005e-07 1.95593e-07 -4.12802e-08
8.63102e-07 2.07895e-07 -1.84461e-08
8.5685e-07 2.10219e-07 -3.17474e-08
8.7937e-07 1.88871e-07 -1.80825e-08
-4.52263e-08 -1.64611e-08 2.31427e-09
6.73117e-07 3.0559e-07 7.66185e-08
6.80807e-07 3.15182e-07 9.69007e-08
-6.85772e-07 1.59831e-07 -7.86196e-08
7.32736e-08 2.43653e-07 3.85308e-08
7.56917e-08 2.40308e-07 4.11135e-08
2.75901e-07 -4.24304e-07 4.31807e-08
3.70351e-07 -4.06858e-07 2.93714e-08
-7.14215e-07 1.32193e-07 -6.78113e-08
-7.65828e-07 1.32385e-07 -7.5485e-08
-9.26829e-07 -1.32941e-07 -2.61563e-10
-9.40452e-07 -1.24763e-07 7.03008e-09
7.84775e-07 3.06734e-07 2.75578e-08
4.24716e-08 5.77586e-07 1.15782e-08
1.38884e-07 4.44491e-07 1.06759e-08
1.17255e-07 5.97274e-07 2.53258e-08
8.49298e-07 2.50442e-07 1.66683e-08
8.19823e-07 2.91395e-07 6.02367e-08
7.91183e-07 3.07814e-07 7.64309e-08
8.4518e-07 2.38169e-07 7.68951e-09
8.54559e-07 2.41125e-07 3.46377e-09
-2.12567e-07 -1.3934e-07 -1.32107e-09
-2.10314e-07 -1.31072e-07 2.22574e-09
-6.21022e-07 3.89247e-07 -5.14504e-08
-6.28796e-07 3.74619e-07 -6.95589e-08
1.34903e-07 4.66686e-08 -1.13651e-08
1.48802e-07 6.84962e-08 -1.81922e-08
7.57976e-07 2.42925e-07 1.15763e-07
7.54212e-07 2.31598e-07 8.91568e-08
-5.66118e-08 -1.31234e-07 -8.74691e-09
-6.15354e-08 -1.26165e-07 -5.39856e-09
7.60248e-07 2.36408e-07 9.9629e-08
-9.27004e-07 1.50209e-07 -2.83507e-08
-5.22672e-07 4.63222e-07 -6.01493e-08
-5.54807e-07 4.22641e-07 -5.27565e-08
-8.59066e-07 -5.23728e-08 4.58453e-09
-8.03441e-07 -4.72973e-08 4.87155e-09
-6.71469e-07 3.00828e-07 -1.06623e-07
-7.05019e-07 -3.62901e-07 4.78756e-08
-7.26629e-07 -3.43768e-07 3.37335e-08
-3.81168e-07 4.61659e-07 -6.67823e-08
3.15592e-07 1.64147e-07 -6.1974e-08
3.63089e-07 1.37127e-07 -5.85063e-08
-8.52699e-07 -4.26384e-08 1.12557e-08
8.69815e-07 2.66789e-07 2.7099e-08
8.86756e-07 2.54615e-07 4.39124e-08
-1.65009e-07 4.2485e-07 3.28764e-08
2.53143e-07 -1.33512e-07 1.10899e-08
-9.85613e-08 3.92914e-07 2.12504e-08
3.34673e-09 4.10967e-07 2.6485e-08
-2.75152e-07 2.45197e-07 2.70806e-08
-2.72841e-07 2.57292e-07 2.20503e-08
5.67387e-07 -2.03078e-07 2.19453e-08
5.43179e-07 -2.26124e-07 3.12086e-08
5.41656e-07 -2.19476e-07 2.61965e-08
-7.95426e-07 2.44333e-07 -9.97445e-08
-7.90198e-07 2.37729e-07 -8.96791e-08
-7.85072e-07 2.57149e-07 -9.40132e-08
-3.10691e-07 3.43282e-07 3.83834e-08
-3.09448e-07 3.62139e-07 5.20406e-08
-3.53019e-07 -8.46575e-08 4.59727e-09
-2.75417e-07 -1.1843e-07 -5.29823e-09
-2.34278e-07 3.71373e-07 4.20382e-08
1.23876e-07 -4.1466e-07 1.73748e-08
1.54724e-07 -4.34957e-07 3.32571e-08
1.48985e-08 2.18498e-07 -2.06292e-08
1.30542e-07 -4.06235e-07 3.03194e-08
2.21289e-07 -5.8437e-07 -4.22637e-08
1.82358e-07 -6.11029e-07 -1.78176e-08
-7.08301e-07 2.50453e-07 -1.05883e-07
6.29608e-07 2.64281e-07 -1.27376e-08
-4.44871e-07 3.38173e-07 -7.8353e-08
-4.43189e-07 3.23337e-07 -7.48325e-08
-4.044e-07 3.58971e-07 -7.32392e-08
4.269e-07 -4.93844e-07 -5.86396e-08
4.26585e-07 -4.9837e-07 -6.10895e-08
4.48085e-07 -4.69798e-07 -7.16174e-08
-8.66575e-07 -1.78309e-07 2.32894e-08
-1.79381e-07 3.43747e-07 2.60094e-08
-1.29875e-07 3.77656e-07 1.93524e-08
7.29615e-07 2.20399e-07 1.07473e-07
-3.11777e-08 3.60477e-07 2.79202e-09
-3.71576e-08 3.53747e-07 1.69431e-08
6.93628e-07 -2.65375e-08 -1.98533e-09
6.90391e-07 -3.73601e-08 1.05103e-09
-4.90114e-08 -1.31032e-08 1.75835e-09
7.14129e-07 -5.68056e-08 1.67591e-08
-5.50927e-07 2.64373e-07 6.9431e-08
-5.49612e-07 2.65781e-07 7.83294e-08
7.90414e-08 3.33332e-07 2.94923e-09
-3.957e-07 5.71108e-07 -3.39207e-08
-7.82821e-07 2.66765e-07 -2.84134e-09
-7.84905e-07 2.53093e-07 1.98344e-09
3.52696e-07 -2.19107e-07 -4.22195e-08
8.23365e-07 2.3203e-07 7.75556e-08
8.29932e-07 2.20865e-07 8.27878e-08
-3.23657e-07 5.75434e-07 -3.79972e-08
1.0041e-06 1.61481e-07 4.56923e-08
2.35081e-07 3.25474e-07 7.2526e-08
3.07672e-07 3.37061e-07 8.49697e-08
9.98295e-07 1.71542e-07 4.35917e-08
4.60866e-07 -2.41114e-07 -5.11425e-08
-8.64444e-07 -1.51372e-07 2.01785e-08
-8.68089e-07 -1.45775e-07 2.62605e-08
-9.47046e-07 -7.10806e-08 4.80853e-09
-8.65081e-07 -1.55341e-07 2.3228e-08
4.92199e-07 2.77605e-07 9.02366e-08
-6.94585e-07 3.3774e-07 1.63322e-08
2.0511e-07 1.67601e-07 -4.38409e-08
1.49876e-07 1.84336e-07 -4.1591e-08
6.03644e-07 2.59773e-07 9.83256e-08
6.07792e-07 2.77918e-07 1.21598e-07
7.0611e-07 3.91932e-07 2.1269e-08
6.86811e-07 4.18436e-07 1.83637e-08
5.7072e-07 2.84545e-07 1.05779e-07
9.15099e-07 1.94978e-07 8.10497e-08
9.10515e-07 2.01918e-07 7.00086e-08
9.22871e-07 1.97141e-07 8.49611e-08
-9.9685e-07 1.27273e-08 -1.98795e-08
-1.00159e-06 -2.81179e-09 -1.35425e-08
-9.94986e-07 4.65752e-09 -2.1101e-08
8.45891e-07 -1.95572e-07 -3.08134e-08
8.04829e-07 2.18633e-07 -5.22079e-08
7.94793e-07 2.05644e-07 -2.46769e-08
7.79139e-07 2.22275e-07 -2.86107e-08
-7.57534e-07 1.9322e-07 5.53911e-08
5.4601e-07 3.68863e-07 -2.97067e-09
5.6181e-07 3.87126e-07 -1.75195e-08
8.39286e-07 2.38412e-07 9.28989e-08
8.74194e-07 2.18803e-07 6.86078e-08
8.9515e-07 1.65717e-07 -4.93577e-08
-8.36804e-07 -2.4235e-07 3.31242e-08
-8.61859e-07 -2.35486e-07 2.50361e-08
-8.71596e-07 -2.18488e-07 2.49231e-08
-8.67812e-07 -2.22115e-07 2.43882e-08
9.02283e-07 1.67827e-07 -5.99743e-08
-6.71546e-07 3.27555e-07 3.55232e-08
-5.92303e-07 3.61351e-07 5.11229e-08
-6.02627e-07 3.40169e-07 4.89052e-08
-6.48244e-07 3.26088e-07 3.19769e-08
-2.98237e-07 4.04022e-07 -5.86049e-08
-2.95641e-07 4.10175e-07 -4.54016e-08
5.03413e-07 5.20264e-07 6.69509e-08
4.68964e-07 5.50161e-07 4.88201e-08
-6.69117e-07 -1.73684e-07 2.24195e-08
-7.14374e-07 -1.88659e-07 3.75799e-08
1.02806e-06 1.08247e-07 -7.26232e-08
1.02858e-06 1.10576e-07 -4.83231e-08
5.2233e-07 2.78582e-07 -1.60694e-08
4.9687e-07 3.09532e-07 -2.01461e-08
-6.25616e-07 3.6331e-07 4.28534e-08
-6.6371e-07 3.35751e-07 1.81669e-08
-3.32662e-07 3.6223e-08 -1.48814e-08
9.38097e-07 1.84563e-07 9.53678e-08
9.62209e-07 1.64721e-07 7.5391e-08
9.6491e-07 1.60672e-07 9.00849e-08
9.67256e-07 1.59238e-07 8.88354e-08
1.19455e-07 3.95187e-07 -5.97466e-09
-9.22054e-07 -1.20911e-07 -4.20025e-09
-9.18211e-07 -1.27543e-07 6.22327e-09
1.99739e-07 3.75461e-07 -2.08384e-09
8.59145e-08 5.082e-07 7.37554e-09
-1.41195e-09 4.86345e-07 -1.45026e-10
-4.62017e-07 4.35634e-07 -7.13847e-08
-4.31078e-07 4.74618e-07 -6.76723e-08
-4.27455e-07 4.66776e-07 -5.16096e-08
-6.43585e-07 3.20582e-07 -9.51635e-08
-6.44654e-07 3.28975e-07 -1.18026e-07
-5.85572e-07 3.46202e-07 -1.07632e-07
-3.67735e-07 4.18873e-07 -7.44448e-08
-3.89167e-07 4.1087e-07 -7.43578e-08
-5.95796e-07 -3.19813e-07 4.29388e-08
-6.03001e-07 -3.23064e-07 5.51364e-08
-4.82072e-07 -1.50047e-07 1.11109e-08
-4.87961e-07 -1.63748e-07 1.86645e-08
-3.68781e-07 4.10696e-07 -5.69102e-08
3.69443e-07 3.11415e-07 1.1131e-07
3.6451e-07 3.05304e-07 9.90596e-08
3.72077e-07 3.06318e-07 9.35119e-08
3.75219e-07 5.68002e-07 4.85391e-08
2.45078e-07 5.92056e-07 3.66871e-08
2.96166e-07 6.04801e-07 5.20785e-08
-4.75182e-07 5.10239e-07 -4.73744e-08
-4.53071e-07 5.24082e-07 -2.69417e-08
1.20147e-07 -6.37332e-07 2.31008e-08
-3.86664e-07 3.69645e-07 -7.53237e-08
-3.80672e-07 3.85927e-07 -6.54361e-08
1.67378e-07 -6.10718e-07 3.8637e-08
1.15489e-08 -6.41828e-07 2.67022e-08
6.35994e-07 2.71164e-07 -2.92517e-08
6.08941e-08 -1.27722e-07 4.98438e-09
-6.68419e-07 3.45422e-07 -6.58694e-08
-6.71538e-07 3.35678e-07 -8.25975e-08
-7.19817e-07 3.17617e-07 -6.70767e-08
6.01509e-07 2.88134e-07 -2.05307e-08
8.38536e-07 2.43463e-07 8.24623e-08
-6.60849e-07 -9.13254e-08 3.61619e-09
8.94498e-07 2.22379e-07 6.67003e-08
8.83982e-07 2.35593e-07 7.31916e-08
3.89654e-07 -8.02386e-08 -7.35483e-09
4.26235e-07 -1.14753e-07 -2.42148e-08
-6.68151e-07 3.23103e-07 -9.21545e-08
8.46251e-07 2.02619e-07 -9.60694e-09
1.876e-07 4.07131e-07 3.96106e-08