# vtk DataFile Version 2.0
S, Created by Mohamad Ibrahim Cheikh
ASCII
DATASET UNSTRUCTURED_GRID
POINTS 4978 double
-111.09 -36.3063 -27.7666
-128.2 30.9605 -25.0867
-126.877 33.6393 -22.3068
-101.359 38.9554 -28.7177
-104.962 38.3077 -27.9954
-85.4047 -51.0063 -10.2654
-84.7731 -51.7453 -6.52714
-78.3366 49.1071 -20.9094
-81.2338 47.4461 -23.2591
-119.65 -10.4143 -41.6998
-19.8619 -8.99734 58.9131
-119.57 -6.40329 -42.5284
-110.158 -28.8619 -35.7964
12.038 5.29341 -59.6174
13.9739 2.38525 -59.7529
-107.165 -29.9896 -35.9811
-46.7067 50.4352 -28.0929
-45.468 52.338 -24.6503
36.0465 -6.03486 58.3481
-130.972 33.5072 19.4214
-63.0012 30.6024 -46.6644
-59.5386 31.588 -46.5641
-133.64 33.6297 16.8092
-77.932 -13.4003 -51.7386
-159.976 19.2852 -9.74146
-167.177 9.09849 9.77811
-24.2749 15.0064 -57.4688
-27.6948 14.6716 -57.3659
-167 5.92838 12.2676
-1.13973 -17.4388 57.4084
-10.2102 -59.8906 0.589938
-13.3028 -59.7394 3.08897
114.026 -25.2887 36.9959
110.309 -26.7266 37.3629
-141.76 6.68021 33.0921
116.631 -40.149 17.9641
-139.183 -22.0539 -27.2397
-142.563 -20.8627 -26.0102
-2.01076 37.7352 -46.6429
-106.911 38.6006 26.6582
-84.5017 51.4491 8.87682
-88.6651 50.2891 10.4186
-111.157 38.3142 24.8864
147.468 28.4494 -11.3238
-156.966 -2.6692 -24.01
-154.941 -6.56111 -24.8574
-106.036 43.0423 19.2576
-128.286 -37.2975 -13.9311
-124.324 -38.902 -13.9407
49.1575 -54.229 -19.0625
44.9815 -54.9528 -18.2339
2.79572 14.2215 -58.282
6.76172 14.6339 -58.1399
-5.18385 15.5894 -57.911
-66.4669 53.5314 13.9114
-69.8937 53.4324 12.1204
-102.105 43.5711 20.6205
-91.4408 -20.5982 -46.3902
-89.186 -23.3322 -45.6268
-97.7278 -9.21949 -48.4328
-144.723 5.17674 31.7646
-140.501 -0.077334 34.3982
-4.4911 -14.3039 58.2489
-96.3541 -28.615 -40.5531
-146.03 20.3674 23.9677
-98.5408 -31.2484 -37.878
60.6995 -46.1971 -31.8553
64.2758 -46.4137 -30.6591
108.704 14.404 44.112
110.425 10.7942 44.6168
35.7903 -52.3561 -26.4956
39.838 -51.5035 -27.4424
130.551 37.8141 -9.13818
131.672 36.1471 -13.0701
163.059 1.1097 18.5382
165.133 -1.20295 16.128
0.2614 29.5009 52.2464
-2.52073 26.8914 53.629
42.1479 -48.0013 32.8388
45.5653 -48.0063 32.2679
115.766 -30.1254 32.4303
53.8767 -53.8981 18.4288
-86.8247 -33.3376 -39.5687
-55.4994 40.2752 -40.0102
-59.6789 38.605 -40.9099
-103.407 -45.2184 -15.6906
51.4785 -2.71805 -57.168
-107.122 -44.4232 -14.8903
117.171 -27.2804 34.278
-89.6973 50.6931 -6.72391
-82.0713 52.3453 -5.94501
-86.0127 51.6469 -5.18297
-80.3761 -32.3086 42.0148
-79.2291 -29.7655 44.108
98.717 -37.6707 31.4303
101.761 -35.0527 33.2198
100.872 -32.2612 36.2424
-40.8518 42.3418 40.0357
-94.7476 -47.307 16.2177
-95.0256 -45.8396 19.8303
-146.295 31.1786 -2.77478
-141.981 33.4591 -3.53866
-45.2488 44.5721 36.9142
-40.9074 45.1774 36.7985
-66.2531 54.9292 -6.73777
-61.6673 55.487 -7.45811
-160.796 -20.6416 2.92284
-159.983 -20.3994 7.09982
-161.981 -17.2757 9.45124
-85.322 -36.3783 -37.2206
17.1331 42.3673 -42.0604
21.7795 42.2419 -41.9232
-109.728 -46.1063 -0.389825
-90.8904 -33.0328 -38.697
-130.679 16.3925 35.2222
-128.818 14.1924 36.9734
-130.634 10.8314 37.3286
-139.408 -10.3036 -33.3844
-59.0719 38.1797 41.4138
-61.4202 40.5526 38.6476
-65.8278 38.9159 39.434
-68.8484 36.7277 40.875
119.883 -40.3267 14.6377
118.923 -41.8563 10.7992
115.059 -43.2027 10.62
-76.0559 -52.772 10.3412
-107.695 -32.5357 -33.4888
125.798 0.921986 -40.7644
125.502 -2.98513 -40.7771
-104.496 -33.5851 -33.6929
-106.259 -38.0869 -27.696
-68.7956 45.963 -30.1327
-103.933 -36.4892 -30.7583
-110.54 -29.1032 35.4549
-114.362 -28.4092 34.5215
-83.4748 -36.3507 37.7565
-116.792 -30.7862 31.341
35.9677 -33.3122 -48.2899
36.8117 -28.1566 -51.3937
-61.5999 35.2988 43.4677
38.2889 -30.8627 -49.6791
-135.101 -34.6315 -12.8884
-133.743 -36.3643 -9.36931
-130.157 -37.7369 -10.0953
-126.523 -1.01054 -40.4865
-122.591 -1.37469 -41.9312
-119.708 0.807647 -42.9531
-149.76 -20.5167 20.8152
-149.728 -17.3029 23.5798
-153.207 -15.1084 22.3181
-156.219 -15.5534 19.2448
-150.747 -21.5242 -18.8313
10.5717 -40.6671 -43.9603
15.1478 -41.5005 -43.0071
152.216 -0.0288539 27.6301
152.111 -3.87558 27.4283
-148.875 -20.1984 -21.8767
-135.588 4.55197 -36.4498
-40.4483 29.786 -50.1248
-39.1627 32.7581 -48.3646
-136.961 0.816647 -36.0945
-137.151 7.25226 -35.2774
43.001 20.2976 54.4209
44.3414 25.9016 51.8498
-91.5794 -38.9469 -32.5019
-87.4055 -39.2277 -33.5542
76.6463 -46.2643 27.2103
-95.87 -49.7469 -0.116486
72.5758 -46.7922 27.6703
57.3949 51.7238 -22.8333
52.9374 52.0129 -23.4856
45.5222 22.4409 53.317
-96.9315 49.4944 0.14743
-93.6952 49.9878 -5.14451
-93.1577 50.3581 -1.26496
75.6525 -44.4066 -30.4528
78.2783 -45.3504 -28.1634
-154.738 -25.6917 2.92586
14.0261 8.02372 59.2582
-26.4406 -51.5789 29.2237
-26.1876 -49.5597 32.5557
11.0753 6.46224 59.525
-71.9359 24.0104 48.8873
-9.13524 57.4469 17.0186
-5.29252 57.9063 15.6021
10.1993 3.29653 59.803
-118.417 -40.1125 16.561
-115.985 -39.9175 18.964
-121.442 -35.2553 23.4841
-121.499 -38.5843 17.4352
-122.89 -36.5404 20.3941
0.58902 49.3136 34.1778
-80.8061 42.9848 30.8692
-12.8683 14.1085 58.1436
3.88518 50.4015 32.5244
-76.9391 46.3332 26.9909
-77.4555 44.5317 29.706
-42.1876 -42.1467 -40.0719
-45.7992 -41.143 -40.6258
-7.68195 -56.9262 -18.7666
98.5333 42.6978 -24.2545
97.4809 40.923 -27.6034
16.5862 -17.1622 57.1995
19.0694 -19.7896 56.2481
81.5874 31.6226 -42.2502
-46.3579 -38.0773 -43.4398
123.467 -38.6399 15.514
-147.064 -30.3264 5.69915
-70.6663 -44.1444 32.2476
57.7763 -55.459 10.7529
59.4581 -55.8923 6.5757
-71.8741 -46.207 28.8526
-76.6983 -51.6833 14.4446
-73.8494 -51.334 17.2378
-43.9743 -47.0683 -33.8797
-41.8631 -45.0761 -36.7911
62.5506 37.9468 -41.0004
64.4586 40.3243 -38.279
-151.465 -28.0577 2.02456
-119.629 -21.1693 37.414
-125.754 -4.82743 40.5046
-19.1661 -10.8876 -58.6216
-22.5891 -8.76289 -58.8281
-124.1 -8.69288 40.4843
-149.902 -28.558 5.78361
-158.372 -10.9342 -20.2429
-156.007 -9.59109 -22.9862
106.532 -45.9863 9.78898
102.748 -47.1397 9.23953
-118.518 43.0819 -4.92899
120.381 -10.6734 41.3753
118.439 -7.86218 42.6711
-125.281 40.8091 -3.61617
53.8901 -9.05207 56.2362
50.6978 -7.08116 56.8787
-121.356 42.285 -2.99709
152.925 -26.3658 6.46199
151.941 -26.1591 9.45316
-69.53 21.4229 -50.4896
-73.6053 20.7757 -50.0509
40.5446 57.9969 5.92475
-152.344 2.20315 27.4552
-149.229 -0.256046 29.5565
-109.272 33.7303 31.6301
-119.179 35.4741 -24.5495
-25.5075 -26.8494 52.9099
-93.4372 -40.9139 -29.2781
-98.1311 -40.1132 -28.4956
146.614 -26.9393 15.5766
149.514 -25.5505 14.5045
-97.7787 28.6305 -40.1225
43.0279 -5.59224 -57.8106
-100.774 26.41 -40.7336
-111.482 37.6634 -25.6887
-114.965 37.6377 -23.7761
-83.3169 39.001 35.0582
129.131 -25.1332 -30.4448
-80.3552 40.6739 33.9873
-120.615 33.0787 -26.9213
67.1411 -54.4907 8.88091
44.8049 -34.1391 -46.7841
48.766 -34.3931 -46.1082
85.8384 31.4524 -41.3362
-113.074 43.4139 12.244
-111.785 42.6963 15.7227
85.7847 26.3847 -44.7539
87.7486 28.6328 -42.8661
48.7019 8.65759 -56.8741
-80.0389 -48.8732 20.6668
-76.3022 -48.4255 23.2851
-26.6007 21.0048 -55.4272
-151.425 -26.5054 9.50231
-129.19 20.1064 -33.9476
-37.3757 -33.9967 47.6781
-127.417 16.6859 -36.5234
-126.371 23.204 -33.2636
-142.687 -10.5093 -31.5752
40.7964 1.32771 -58.2621
-143.03 -6.89078 -32.3722
-5.47284 6.51694 59.6143
77.7201 -37.3439 -38.2874
-113.47 18.0657 41.1988
-106.706 -23.7969 -40.4938
-103.421 -25.7775 -40.3244
83.7276 -34.1339 -39.7068
81.523 -36.5101 -38.123
-149.563 -2.53966 -29.24
39.3711 -25.1468 -52.7054
42.6989 -24.4999 -52.6929
-143.592 3.93067 -32.5618
-146.113 -2.33457 -31.3189
-143.753 -0.119066 -32.7118
-124.611 31.1269 -27.02
73.6943 -50.3639 -19.9648
13.7497 57.7769 -15.4494
9.02546 57.4862 -16.8928
74.1582 -48.5398 -23.8875
77.4402 -47.3305 -25.0126
-144.576 -31.6429 -6.3031
-140.582 -33.4919 -7.66498
101.905 -40.4524 -26.3104
97.2178 -38.9437 -30.4352
-128.314 8.77835 38.8234
-129.514 5.595 38.9248
97.7813 -40.7361 -27.7494
-52.635 22.4379 52.5106
6.21296 2.1136 59.9233
166.816 -12.8326 -5.33788
167.587 -10.1874 -7.60477
-48.4419 23.1539 52.6935
108.887 46.3469 -0.649091
115.444 44.3632 0.539534
112.596 45.2031 -2.13988
105.107 -24.7369 -40.4423
101.08 -25.4425 -41.2533
-8.85522 8.09961 59.37
100.049 -22.3624 -43.295
-48.6032 42.6537 38.6194
-45.3201 46.626 34.2719
-36.7209 47.3021 34.6039
-37.3849 49.3934 31.4513
-156.804 -22.2244 9.79295
-154.662 -24.8856 7.22664
100.921 45.3212 -17.2937
96.8215 46.768 -16.2813
40.5895 -58.245 -2.4122
44.0642 -57.9789 -0.859529
87.6354 -45.2917 -24.6664
90.515 -43.3239 -26.8328
-123.29 -39.0768 14.5627
103.071 45.7364 -14.4068
-61.0907 50.1854 24.9904
-74.4487 49.3371 22.0746
-69.3023 48.3025 26.0553
-65.0731 49.9431 24.2336
17.3632 1.30159 59.6774
-98.1047 40.7812 -27.5425
-94.373 41.47 -28.1048
-39.4547 -34.7596 -46.9168
-32.2352 16.9665 -56.4351
-28.4627 17.6422 -56.4763
146.998 9.68526 29.3387
147.179 13.3944 27.7239
-37.2793 -37.6389 -44.8684
-38.3846 -40.4429 -42.2373
53.1935 -55.8535 11.5747
49.9213 -56.7859 8.38236
-116.277 42.6635 11.1619
-156.393 9.01769 -22.897
-139.673 10.287 33.2538
-156.345 12.009 -21.5225
-96.0923 47.1708 15.6352
-105.153 46.2742 -10.2472
-108.213 44.8816 -12.3298
-90.911 47.337 18.6379
-92.0154 48.1753 15.5748
54.8458 -14.2154 55.0423
51.9638 -12.69 55.7529
-149.239 -25.0442 -15.6862
-145.519 -26.8422 -16.942
3.02787 14.7164 58.1576
0.394267 17.6325 57.3505
-58.5799 47.1991 -30.8565
-62.288 46.4116 -31.1604
47.8138 -0.37566 -57.6192
44.2026 -1.70212 -57.9474
-65.0091 47.4021 -28.9076
-82.0417 -52.4792 -4.67934
-156.996 -17.2833 -16.8442
-154.303 -20.6372 -16.0998
16.3843 -52.1859 29.0477
14.7397 -48.6546 34.7294
-110.697 -33.939 -30.7888
130.564 -37.4666 -10.452
127.611 -39.0116 -9.18957
-144.992 -12.3861 -29.5439
-13.9785 28.8914 52.358
-11.3721 31.5477 50.8813
13.4506 -50.8949 31.4254
-101.083 48.1111 5.86605
-96.8294 49.3385 4.22463
-135.763 -3.4129 36.4942
53.5202 13.6043 55.3556
-133.05 -0.671888 37.8461
-132.286 3.22395 38.0421
-56.5827 -8.4685 56.0029
-59.8012 -6.65505 55.8381
95.5687 31.4978 38.5969
[...]
POINT_DATA 4978
VECTORS F double
-5.29577e-08 4.44372e-08 -3.21647e-08
8.22532e-08 5.04071e-08 1.07491e-08
8.91415e-08 4.84604e-08 1.10067e-08
1.03021e-07 4.37714e-08 1.48596e-08
1.01117e-07 4.28521e-08 1.22233e-08
-8.41282e-08 2.1229e-08 -1.97938e-08
-8.81119e-08 1.99129e-08 -1.77614e-08
1.29453e-07 3.28284e-08 1.77237e-08
1.2344e-07 3.58578e-08 2.03653e-08
-2.98385e-09 6.45467e-08 -1.50721e-08
-2.58359e-08 3.93717e-08 4.94655e-09
6.4691e-09 6.65026e-08 -1.22397e-08
-3.58777e-08 5.46702e-08 -3.05625e-08
-9.72496e-09 2.70484e-08 2.1612e-09
-1.57516e-08 2.22067e-08 4.35487e-10
-3.55675e-08 5.27283e-08 -3.09792e-08
1.45956e-07 3.04407e-08 2.49417e-08
1.5202e-07 2.82898e-08 2.57367e-08
-3.10083e-08 -9.43841e-09 1.36907e-09
8.34371e-08 3.81426e-08 3.08043e-09
8.75569e-08 5.70483e-08 2.294e-08
8.8503e-08 6.25601e-08 2.85851e-08
8.35387e-08 3.96932e-08 1.89858e-09
-7.44242e-09 7.16668e-08 -1.71893e-08
6.08535e-08 6.32659e-08 2.9007e-09
3.05217e-08 6.81556e-08 4.68919e-10
3.6334e-08 7.84192e-08 1.85981e-08
3.54618e-08 7.72559e-08 1.76625e-08
2.00168e-08 6.65668e-08 1.19226e-09
-4.92095e-08 1.75632e-08 5.21552e-09
-1.12162e-07 2.26016e-09 -8.20281e-09
-1.11654e-07 2.70845e-09 -6.48725e-09
-5.11731e-08 -3.44001e-08 -4.20488e-09
-5.22459e-08 -3.41112e-08 -5.51628e-09
2.42659e-08 4.94196e-08 2.75016e-09
-7.46234e-08 -2.86389e-08 -4.69238e-09
-3.20534e-08 5.30621e-08 -2.29097e-08
-3.24701e-08 5.33581e-08 -2.10101e-08
9.65483e-08 5.64628e-08 4.51702e-08
9.52792e-08 3.0165e-08 3.10231e-09
1.2832e-07 2.38991e-08 1.10313e-08
1.25117e-07 2.52648e-08 8.40814e-09
9.27163e-08 2.97442e-08 4.90671e-09
5.38874e-08 -3.45236e-08 -8.20667e-10
3.19851e-09 6.91443e-08 -1.0247e-08
-5.15649e-09 6.35137e-08 -1.28296e-08
1.04228e-07 2.80068e-08 7.66282e-09
-6.03639e-08 3.38244e-08 -2.25045e-08
-5.96954e-08 3.19405e-08 -2.3955e-08
-9.77478e-08 -8.76272e-09 -5.93149e-09
-9.87452e-08 -7.83859e-09 -6.19897e-09
1.04539e-08 4.3336e-08 1.06358e-08
1.16961e-08 3.8991e-08 9.98057e-09
2.05759e-08 5.53167e-08 1.46655e-08
1.40098e-07 2.00382e-08 4.84091e-09
1.37101e-07 2.01466e-08 7.97636e-09
1.06994e-07 2.83096e-08 5.04294e-09
-1.71999e-08 6.73572e-08 -2.57573e-08
-2.18789e-08 6.16095e-08 -2.62695e-08
5.76886e-09 6.88624e-08 -1.45335e-08
2.21827e-08 4.82342e-08 4.51254e-09
1.02722e-08 4.91202e-08 5.24722e-09
-4.37743e-08 2.40822e-08 5.50058e-09
-3.63917e-08 5.72572e-08 -2.98159e-08
5.52868e-08 4.93082e-08 -6.61727e-10
-4.00195e-08 5.43998e-08 -3.21324e-08
-8.37879e-08 -1.17482e-08 -2.50868e-09
-8.31329e-08 -1.21187e-08 -2.99116e-09
1.36176e-08 -4.22366e-08 9.68332e-09
8.31253e-09 -4.55275e-08 8.49591e-09
-9.61865e-08 -4.33909e-09 -7.33254e-09
-9.5115e-08 -5.29748e-09 -6.96219e-09
6.57309e-08 -2.75338e-08 1.02911e-09
6.10685e-08 -2.76274e-08 -1.08841e-09
-2.46181e-09 -5.48568e-08 5.93504e-09
-6.36158e-09 -5.70859e-08 3.71691e-09
6.09126e-08 4.67877e-08 -2.64559e-08
5.77014e-08 4.94731e-08 -2.44754e-08
-9.08565e-08 -1.19188e-08 -3.14553e-09
-9.02957e-08 -1.24873e-08 -2.96764e-09
-5.93098e-08 -3.30762e-08 -4.80552e-09
-9.70339e-08 -1.3528e-08 -4.83485e-09
-4.4998e-08 5.28562e-08 -3.24446e-08
1.10822e-07 4.7866e-08 2.9363e-08
1.07597e-07 4.86722e-08 2.67137e-08
-7.00268e-08 2.86887e-08 -2.61775e-08
-1.5771e-08 -1.46534e-08 -1.04194e-09
-7.08843e-08 2.93019e-08 -2.49873e-08
-5.22531e-08 -3.49426e-08 -5.94213e-09
1.27914e-07 2.96047e-08 1.42908e-08
1.33103e-07 2.71864e-08 1.44141e-08
1.31028e-07 2.79297e-08 1.2103e-08
-5.28852e-08 3.86063e-08 1.73015e-08
-4.6332e-08 3.84626e-08 1.57671e-08
-7.12066e-08 -2.71552e-08 -5.16638e-09
-6.68877e-08 -2.99844e-08 -6.55431e-09
-6.1775e-08 -2.92108e-08 -4.95248e-09
1.18492e-07 2.43071e-08 -1.09048e-08
-7.90288e-08 2.09147e-08 4.48313e-09
-7.37432e-08 2.15159e-08 6.47379e-09
8.39572e-08 4.87098e-08 5.40407e-09
8.73367e-08 4.61442e-08 7.29803e-09
1.23094e-07 2.18195e-08 -7.87353e-09
1.24708e-07 2.42068e-08 -1.27462e-08
1.45991e-07 2.32566e-08 1.38495e-08
1.48228e-07 2.2262e-08 1.55763e-08
-4.91958e-08 4.63358e-08 -4.10989e-09
-4.80076e-08 4.54602e-08 -1.82028e-09
-4.24239e-08 4.93341e-08 1.16158e-09
-5.34251e-08 4.75823e-08 -3.15123e-08
9.76596e-08 2.44803e-08 2.95293e-08
9.81847e-08 1.68654e-08 2.32384e-08
-7.60424e-08 2.22705e-08 -1.35458e-08
-4.61024e-08 5.22308e-08 -3.13288e-08
4.49678e-08 4.34834e-08 1.87947e-10
4.22477e-08 4.14993e-08 2.09072e-09
3.44588e-08 4.41805e-08 1.94408e-09
-8.72639e-09 6.41728e-08 -1.53447e-08
1.07332e-07 2.65105e-08 -5.69709e-09
1.08742e-07 2.74734e-08 -7.67022e-09
1.06128e-07 2.64346e-08 -4.39815e-09
9.92927e-08 2.88994e-08 -5.49189e-09
-7.40144e-08 -2.86186e-08 -4.63153e-09
-7.70843e-08 -2.79906e-08 -4.564e-09
-7.80584e-08 -2.66165e-08 -4.7412e-09
-9.26177e-08 1.61521e-08 -9.67517e-10
-4.47953e-08 5.14767e-08 -3.23754e-08
-1.42726e-09 -3.53852e-08 -1.3396e-09
-1.01945e-08 -3.52804e-08 -1.25858e-09
-4.44761e-08 4.91814e-08 -3.21367e-08
-5.29826e-08 4.1059e-08 -3.15773e-08
1.24589e-07 3.91531e-08 2.48982e-08
-5.30887e-08 4.54644e-08 -3.19736e-08
-4.18211e-08 3.35538e-08 1.15797e-08
-4.29343e-08 3.31356e-08 9.85574e-09
-6.14269e-08 3.49281e-08 1.70012e-08
-4.57204e-08 3.16656e-08 1.02464e-08
-7.04296e-08 -1.60004e-09 -5.31848e-09
-6.2596e-08 -1.44955e-09 -4.69486e-09
9.65431e-08 3.0696e-08 -8.17743e-09
-6.60846e-08 -3.74407e-09 -3.90954e-09
-5.65229e-08 3.48972e-08 -2.1233e-08
-6.10831e-08 3.22872e-08 -1.85659e-08
-6.03593e-08 3.10348e-08 -2.07376e-08
1.50924e-08 6.31763e-08 -7.35116e-09
1.67416e-08 6.51166e-08 -8.12716e-09
2.00444e-08 6.58738e-08 -5.60051e-09
-3.92415e-08 4.11623e-08 6.00711e-09
-3.1014e-08 4.32538e-08 7.62991e-09
-3.064e-08 4.77716e-08 6.58881e-09
-3.28006e-08 4.70815e-08 5.45374e-09
-3.84961e-08 4.96489e-08 -1.90211e-08
-8.507e-08 1.05934e-08 -1.23044e-08
-8.50044e-08 7.73682e-09 -1.11312e-08
-6.28453e-09 -5.01349e-08 4.18641e-09
-1.58958e-08 -5.04929e-08 3.658e-09
-3.47046e-08 5.1856e-08 -1.89643e-08
2.81214e-08 6.27414e-08 -4.97142e-09
8.48069e-08 6.81946e-08 3.21455e-08
9.7087e-08 6.45049e-08 3.40656e-08
1.76757e-08 6.47388e-08 -6.74655e-09
3.25184e-08 6.55929e-08 -1.99338e-09
1.97034e-08 -1.58056e-08 3.98904e-09
3.32346e-08 -1.61597e-08 4.59302e-09
-5.89133e-08 4.37923e-08 -3.21538e-08
-5.77256e-08 4.46846e-08 -3.38309e-08
-8.47637e-08 -2.02415e-08 -5.18458e-09
-8.05351e-08 1.90297e-08 -1.22246e-08
-8.56613e-08 -1.99931e-08 -6.30289e-09
1.41552e-07 -2.328e-08 -9.17495e-09
1.41051e-07 -2.0239e-08 -5.89896e-09
2.40637e-08 -1.92593e-08 5.59086e-09
1.22991e-07 2.94574e-08 1.0577e-08
1.25272e-07 2.99306e-08 1.15064e-08
1.25692e-07 2.87838e-08 1.26372e-08
-7.95902e-08 -1.42346e-08 -3.44941e-09
-7.9459e-08 -1.49301e-08 -2.9968e-09
-5.48098e-08 3.98481e-08 -4.97521e-09
-6.57275e-09 1.87564e-08 -2.34918e-09
-1.00168e-07 1.02108e-08 6.92656e-09
-9.6636e-08 1.08642e-08 7.022e-09
-8.17119e-09 2.03546e-08 -2.02362e-09
6.39319e-08 4.04844e-08 -8.36629e-09
1.78351e-07 2.67267e-09 2.69924e-09
1.84223e-07 1.2444e-09 3.03256e-09
-1.47155e-08 2.14856e-08 -8.77093e-10
-6.30919e-08 2.28127e-08 2.46602e-11
-6.44878e-08 2.478e-08 3.87294e-09
-5.65319e-08 2.67047e-08 4.29998e-09
-6.35199e-08 2.45855e-08 2.16421e-10
-5.85381e-08 2.59907e-08 3.38376e-09
1.6601e-07 1.64741e-08 -2.41199e-08
1.0987e-07 2.6628e-08 -1.86816e-09
1.9319e-08 5.21573e-08 -1.21324e-08
1.64045e-07 1.86103e-08 -3.12383e-08
1.19994e-07 2.47177e-08 -5.55223e-10
1.12678e-07 2.45381e-08 -8.15939e-10
-7.92308e-08 3.60577e-08 -2.77125e-08
-7.89436e-08 3.98495e-08 -2.94614e-08
-1.07114e-07 6.52745e-09 -1.44324e-08
7.49344e-08 -2.54776e-08 -7.58194e-09
6.88504e-08 -2.47144e-08 -6.87271e-09
-5.09411e-08 4.487e-09 3.15468e-09
-5.46836e-08 3.00698e-10 2.37547e-09
5.33044e-08 -2.99954e-08 -9.84852e-09
-7.04428e-08 4.35665e-08 -2.8985e-08
-7.27276e-08 -3.03525e-08 -4.73732e-09
-5.64473e-08 3.26254e-08 -4.71922e-09
-7.82272e-08 2.42537e-08 1.22144e-08
-9.89092e-08 -1.35361e-08 -4.75014e-09
-9.90667e-08 -1.35431e-08 -5.44784e-09
-8.13094e-08 2.30651e-08 1.21413e-08
-8.87044e-08 1.64517e-08 1.20161e-09
-9.05277e-08 1.75519e-08 4.78812e-09
-8.70006e-08 3.06923e-08 -2.88154e-08
-8.66625e-08 3.30503e-08 -2.84204e-08
7.36292e-08 -2.48561e-08 -9.25281e-09
8.26412e-08 -2.7768e-08 -1.22147e-08
-5.58268e-08 3.643e-08 -6.45743e-09
-2.7733e-08 3.73454e-08 1.02744e-08
3.04764e-09 4.65906e-08 6.71122e-09
-3.28883e-08 5.57216e-08 -9.03262e-09
-2.89619e-08 6.33087e-08 -8.06888e-09
-3.02654e-09 4.28126e-08 8.05706e-09
-5.67631e-08 3.5655e-08 -4.05944e-09
-1.90389e-08 6.25501e-08 -1.55508e-08
-1.49536e-08 6.34802e-08 -1.40625e-08
-8.2967e-08 -2.45957e-08 -5.00335e-09
-8.39878e-08 -2.34091e-08 -5.0877e-09
1.07669e-07 3.75995e-08 1.16901e-08
-2.59601e-08 -4.19774e-08 -1.58169e-09
-2.21487e-08 -3.95522e-08 2.38854e-10
1.02517e-07 3.93752e-08 9.53849e-09
-3.22549e-08 -2.39424e-08 -6.97804e-11
-3.10065e-08 -2.11529e-08 7.50099e-10
1.04808e-07 3.75108e-08 9.673e-09
-5.7978e-08 -4.2012e-08 -3.43668e-09
-5.75988e-08 -4.20356e-08 -2.98128e-09
6.42445e-08 6.63842e-08 1.73357e-08
6.33421e-08 6.31072e-08 1.47911e-08
3.59887e-07 -2.86355e-08 -1.15949e-07
1.20773e-08 5.50177e-08 3.78968e-09
9.11292e-09 5.11169e-08 6.07578e-09
8.37207e-08 3.17348e-08 1.56721e-09
9.32706e-08 4.67597e-08 1.21337e-08
-6.09912e-08 2.94854e-08 1.13628e-08
-6.07911e-08 4.02737e-08 -3.25278e-08
-6.16173e-08 4.05844e-08 -3.11526e-08
-5.67909e-08 -4.07674e-08 -5.06387e-09
-5.52985e-08 -4.16685e-08 -3.61521e-09
7.92902e-08 5.46985e-08 1.5375e-08
-2.56395e-08 -8.59594e-09 -1.50481e-09
7.47928e-08 5.63397e-08 1.38751e-08
9.88498e-08 4.53379e-08 1.39531e-08
9.63971e-08 4.39174e-08 1.24572e-08
1.00074e-07 2.70758e-08 -1.00437e-09
-4.64595e-08 -3.01343e-08 7.518e-10
1.03695e-07 2.55762e-08 -5.93633e-10
8.60222e-08 4.8712e-08 1.26697e-08
-9.64121e-08 -1.54659e-08 -5.65843e-09
-6.98794e-08 -7.15254e-09 -2.97386e-09
-6.87855e-08 -7.06279e-09 -3.63828e-09
5.3567e-08 -2.83159e-08 -7.92705e-09
1.06344e-07 3.18731e-08 7.22167e-09
1.045e-07 3.02927e-08 8.69708e-09
4.18885e-08 -2.99785e-08 -7.84397e-09
4.74796e-08 -3.21371e-08 -9.56734e-09
2.77288e-09 -1.60302e-08 -2.14951e-09
-8.37272e-08 1.94713e-08 6.34796e-09
-8.42714e-08 2.06204e-08 9.07635e-09
5.88676e-08 7.48192e-08 2.48948e-08
-5.28941e-08 3.68159e-08 -4.99909e-10
5.89574e-08 6.01398e-08 8.15102e-09
-6.95869e-08 3.06934e-08 1.52074e-08
5.27732e-08 5.8258e-08 4.07579e-09
6.64388e-08 5.61012e-08 8.23367e-09
-1.02221e-08 6.13456e-08 -1.47625e-08
-1.42117e-08 -7.06449e-09 -1.37929e-09
-9.4508e-10 6.37117e-08 -1.30506e-08
-1.70559e-11 3.91429e-08 -4.27922e-09
-6.76749e-08 -1.6169e-08 -1.04776e-09
4.86411e-08 4.16711e-08 -1.87161e-09
-2.62044e-08 6.07658e-08 -2.72564e-08
-2.6574e-08 5.78832e-08 -2.86581e-08
-6.16192e-08 -1.82828e-08 -1.90519e-10
-6.68133e-08 -1.59455e-08 -2.22082e-09
6.3084e-09 6.33365e-08 -9.45164e-09
-5.73591e-08 -4.39598e-09 -3.14826e-09
-5.64387e-08 -5.25922e-09 -3.15383e-09
2.48206e-08 6.53469e-08 -5.51197e-09
7.96426e-09 6.47583e-08 -9.37608e-09
1.25916e-08 6.43789e-08 -7.00878e-09
8.37419e-08 5.10588e-08 1.1538e-08
-8.90071e-08 -1.43156e-08 -4.10953e-09
2.17271e-07 1.01014e-09 2.74508e-08
2.11767e-07 4.5077e-09 2.91912e-08
-8.50132e-08 -1.38818e-08 -4.10287e-09
-8.37029e-08 -1.4902e-08 -3.5281e-09
-5.8566e-08 3.55222e-08 -1.38682e-08
-5.80856e-08 3.36801e-08 -1.67387e-08
-7.09292e-08 -1.99874e-08 -2.90269e-09
-6.74413e-08 -1.87497e-08 -2.38237e-09
3.26736e-08 4.20035e-08 3.72326e-09
2.52219e-08 4.35254e-08 4.01786e-09
-7.20727e-08 -2.01101e-08 -1.57042e-09
6.05026e-08 4.11856e-08 -1.0174e-08
-1.59685e-08 2.28797e-08 -6.04267e-10
-3.41027e-08 -5.44476e-08 4.16202e-10
-2.68266e-08 -5.49568e-08 1.2429e-09
6.1509e-08 4.5401e-08 -1.30267e-08
7.92465e-08 -2.2697e-08 6.89724e-09
7.54897e-08 -2.41567e-08 8.78624e-09
7.85999e-08 -2.37529e-08 4.56529e-09
-4.47417e-08 -2.21331e-08 -6.98012e-10
-4.5586e-08 -2.41077e-08 1.19364e-09
2.46586e-09 4.55081e-08 -6.16342e-09
-4.02435e-08 -2.23746e-08 1.71421e-10
1.17098e-07 2.51315e-08 -9.71486e-09
1.27107e-07 2.20504e-08 -9.42123e-09
1.33542e-07 1.82442e-08 -7.58958e-09
1.36156e-07 1.8518e-08 -9.26823e-09
-4.87115e-08 4.23536e-08 6.3034e-10
-5.24469e-08 3.91486e-08 -2.60593e-09
8.1786e-08 -2.42971e-08 -5.2437e-09
8.23733e-08 -2.22133e-08 -3.83614e-09
-1.04361e-07 -8.64918e-09 -6.14469e-09
-1.03532e-07 -9.54094e-09 -6.21742e-09
-7.96883e-08 -1.67214e-08 -3.95786e-09
-7.6113e-08 -1.83515e-08 -1.80315e-09
-6.20272e-08 2.33463e-08 -1.64364e-09
7.9838e-08 -2.30024e-08 -3.09575e-09
1.32217e-07 2.1657e-08 -3.92145e-09
1.24776e-07 2.26045e-08 9.98164e-10
1.26151e-07 2.31071e-08 -1.75812e-09
1.30012e-07 2.07359e-08 6.23976e-12
-1.9284e-08 1.11421e-08 4.43876e-10
1.06778e-07 4.15706e-08 1.49885e-08
1.08739e-07 4.32838e-08 1.91649e-08
-6.81014e-08 4.64961e-08 -2.74366e-08
4.79616e-08 7.83545e-08 2.02024e-08
4.8387e-08 8.02087e-08 2.20703e-08
1.11431e-08 -4.68292e-08 8.62411e-09
2.08056e-08 -4.64087e-08 8.8995e-09
-7.51195e-08 4.04828e-08 -2.63188e-08
-7.91711e-08 3.84921e-08 -2.80483e-08
-9.98454e-08 -1.27117e-08 -5.16334e-09
-1.01428e-07 -1.16247e-08 -4.79773e-09
1.04162e-07 3.25173e-08 8.55466e-09
3.26876e-08 6.71864e-08 -8.7332e-10
3.40653e-08 4.54632e-08 3.4531e-09
4.09587e-08 6.71205e-08 1.02503e-09
1.17236e-07 2.65576e-08 8.08795e-09
1.15491e-07 3.46834e-08 1.15316e-08
1.11579e-07 3.66509e-08 1.35226e-08
1.17729e-07 2.50132e-08 6.77472e-09
1.18476e-07 2.57136e-08 6.15627e-09
-4.00664e-08 -2.22261e-08 -8.52442e-10
-3.98807e-08 -2.06228e-08 -1.43331e-10
-4.6546e-08 4.50976e-08 -1.77861e-08
-4.62901e-08 4.38099e-08 -2.07344e-08
1.28978e-08 3.61964e-08 -9.24144e-09
2.29305e-08 4.49426e-08 -1.3837e-08
1.31333e-07 3.71082e-08 2.62371e-08
1.29168e-07 3.64194e-08 2.26342e-08
-1.5023e-08 -1.25665e-08 -1.44433e-09
-1.65288e-08 -1.06095e-08 -1.23194e-09
1.28236e-07 3.60134e-08 2.37479e-08
-9.0046e-08 1.83871e-08 -1.29317e-08
-3.48268e-08 5.48532e-08 -1.65433e-08
-3.92536e-08 4.86079e-08 -1.62488e-08
-9.95726e-08 -4.3162e-09 -8.78357e-10
-9.51865e-08 -3.30751e-09 3.12216e-10
-4.47206e-08 4.69812e-08 -3.21036e-08
-7.03181e-08 -2.953e-08 -1.68559e-09
-7.22085e-08 -2.82194e-08 -2.96254e-09
-1.38616e-08 5.96622e-08 -1.66846e-08
7.26282e-08 4.87953e-08 -2.45517e-08
7.90453e-08 4.40225e-08 -2.51322e-08
-9.88195e-08 -2.92135e-09 4.46936e-10
1.1929e-07 2.95984e-08 8.9026e-09
1.22624e-07 2.84673e-08 1.16259e-08
3.73824e-09 4.78857e-08 6.18083e-09
7.78835e-09 -2.50449e-08 5.23321e-09
1.02352e-08 4.50651e-08 5.20533e-09
2.19165e-08 4.43166e-08 5.57466e-09
-7.67835e-09 5.04203e-08 6.67461e-09
-6.87533e-09 5.36246e-08 5.48977e-09
4.59332e-08 -3.60962e-08 1.5533e-08
4.20235e-08 -3.95969e-08 1.59898e-08
4.21137e-08 -3.72796e-08 1.57426e-08
-6.40237e-08 3.77024e-08 -3.16732e-08
-6.28571e-08 3.40408e-08 -2.90851e-08
-6.19215e-08 3.80063e-08 -3.10729e-08
-1.06591e-08 4.14521e-08 8.29988e-09
-9.36846e-09 4.50298e-08 9.59235e-09
-5.35076e-08 -1.03354e-08 5.5929e-10
-4.75598e-08 -1.37702e-08 -1.41006e-10
-1.12227e-09 4.36266e-08 7.95097e-09
-2.76167e-09 -4.70743e-08 3.81701e-09
-1.4602e-10 -4.78882e-08 5.63911e-09
2.95334e-08 5.50429e-08 -8.20492e-09
-2.64271e-09 -4.72386e-08 5.47951e-09
6.77709e-09 -5.05856e-08 -2.01918e-09
2.05964e-09 -5.39778e-08 -4.66977e-12
-5.28038e-08 5.0081e-08 -3.34911e-08
9.14495e-08 2.85013e-08 1.17775e-09
-1.48226e-08 7.24923e-08 -2.16064e-08
-1.43841e-08 6.6624e-08 -2.18322e-08
-6.70201e-09 7.22399e-08 -1.96613e-08
2.86291e-08 -4.43104e-08 -3.35133e-09
2.82799e-08 -4.50692e-08 -3.94999e-09
3.08092e-08 -4.17916e-08 -4.79091e-09
-9.06662e-08 -1.33758e-08 -5.00336e-09
3.99659e-09 4.20761e-08 6.24735e-09
1.04338e-08 4.56973e-08 4.74796e-09
1.32442e-07 3.55541e-08 2.55747e-08
2.11616e-08 4.56452e-08 1.97917e-09
1.86905e-08 4.377e-08 3.97414e-09
1.14784e-07 2.54258e-08 -3.69948e-08
1.02663e-07 1.6815e-08 -2.53473e-08
-2.06583e-08 1.3283e-08 4.68492e-10
1.01723e-07 1.68087e-08 -2.79465e-08
-3.84913e-08 4.19236e-08 1.60774e-08
-3.76648e-08 4.2098e-08 1.70319e-08
3.11533e-08 4.17229e-08 1.54509e-09
-2.02355e-08 6.75685e-08 -9.32716e-09
-6.63676e-08 2.48516e-08 -6.71632e-09
-6.57004e-08 2.31242e-08 -6.08085e-09
2.93395e-08 -2.82199e-08 -6.36635e-09
1.31398e-07 3.28099e-08 1.85266e-08
1.34047e-07 3.09349e-08 1.83791e-08
-1.12698e-08 6.90697e-08 -9.19824e-09
1.54567e-07 1.91624e-08 1.27566e-08
7.02864e-08 6.37333e-08 1.95072e-08
7.87078e-08 6.29275e-08 2.22303e-08
1.52139e-07 2.04552e-08 1.27273e-08
4.14069e-08 -3.10414e-08 -7.70303e-09
-9.18941e-08 -1.01873e-08 -5.09212e-09
-9.28011e-08 -9.61367e-09 -4.61962e-09
-1.05425e-07 -6.36388e-09 -3.43472e-09
-9.13491e-08 -1.08697e-08 -4.86478e-09
9.77215e-08 4.89509e-08 2.26648e-08
-5.73086e-08 3.22052e-08 -1.77253e-09
4.96145e-08 5.30666e-08 -1.95771e-08
4.41333e-08 5.56377e-08 -1.77043e-08
1.11978e-07 4.38344e-08 2.4236e-08
1.12765e-07 4.75297e-08 3.05947e-08
9.24458e-08 4.11299e-08 5.41411e-09
8.99417e-08 4.33681e-08 4.76813e-09
1.06244e-07 4.73652e-08 2.53021e-08
1.4512e-07 2.58371e-08 1.80856e-08
1.42884e-07 2.69988e-08 1.70603e-08
1.49249e-07 2.735e-08 2.1418e-08
-1.10831e-07 5.97453e-09 -1.25595e-08
-1.11577e-07 3.53705e-09 -1.06529e-08
-1.10153e-07 5.08711e-09 -1.26001e-08
8.29275e-08 -2.24926e-08 8.67368e-09
1.20082e-07 2.50149e-08 -6.35941e-09
1.17838e-07 2.29259e-08 -1.33912e-09
1.14319e-07 2.45854e-08 -1.87276e-09
-6.76655e-08 2.72289e-08 1.3883e-08
7.41894e-08 3.72351e-08 2.86321e-09
7.58485e-08 3.96153e-08 6.66686e-10
1.31444e-07 3.22021e-08 1.97618e-08
1.36157e-07 2.94198e-08 1.63413e-08
1.38696e-07 1.76393e-08 -4.26126e-09
-8.529e-08 -2.01261e-08 -3.66299e-09
-8.79836e-08 -1.99968e-08 -4.52904e-09
-8.96796e-08 -1.82245e-08 -4.66205e-09
-8.8935e-08 -1.89004e-08 -4.57482e-09
1.40654e-07 1.80001e-08 -6.6548e-09
-5.41758e-08 3.11825e-08 2.55946e-09
-4.48465e-08 3.62819e-08 7.00107e-09
-4.57577e-08 3.30488e-08 6.19549e-09
-5.14851e-08 3.16124e-08 3.73853e-09
1.60877e-09 6.65649e-08 -1.49018e-08
1.68644e-09 6.78998e-08 -1.2969e-08
7.39596e-08 5.4863e-08 7.27552e-09
7.06173e-08 5.72076e-08 4.76332e-09
-7.40479e-08 -1.13943e-08 -2.78584e-09
-7.77266e-08 -1.28113e-08 -1.66889e-09
1.67953e-07 7.32032e-09 -1.99833e-09
1.65044e-07 8.41091e-09 -8.26529e-10
7.84028e-08 3.04133e-08 3.32159e-10
7.4781e-08 3.32494e-08 -2.9424e-10
-4.95857e-08 3.55202e-08 4.20878e-09
-5.44899e-08 3.22216e-08 9.46421e-11
-4.36268e-08 3.09892e-08 -7.11069e-09
1.54766e-07 2.56167e-08 2.32864e-08
1.5914e-07 2.2479e-08 1.97794e-08
1.61181e-07 2.12124e-08 2.05176e-08
1.63769e-07 2.17773e-08 2.19394e-08
3.43321e-08 4.25373e-08 1.71887e-09
-1.00403e-07 -1.16674e-08 -4.75254e-09
-9.96411e-08 -1.24992e-08 -4.32713e-09
4.14061e-08 3.97751e-08 2.11399e-09
3.98754e-08 6.31472e-08 -1.64848e-09
3.0452e-08 6.31812e-08 -3.63772e-09
-2.50839e-08 5.40201e-08 -1.87963e-08
-2.06989e-08 5.95742e-08 -1.73794e-08
-2.24255e-08 5.79114e-08 -1.52734e-08
-4.11708e-08 4.84591e-08 -2.9353e-08
-4.01437e-08 5.21188e-08 -3.30716e-08
-3.27269e-08 5.24623e-08 -2.93787e-08
-7.49178e-09 6.32933e-08 -1.86256e-08
-1.23861e-08 5.87296e-08 -1.92252e-08
-6.14675e-08 -2.4648e-08 -9.07128e-10
-6.26566e-08 -2.49678e-08 3.79298e-10
-5.83932e-08 -8.84543e-09 -2.24543e-09
-5.86285e-08 -1.0613e-08 -1.58052e-09
-9.12163e-09 6.16703e-08 -1.67186e-08
9.01709e-08 6.35496e-08 3.26549e-08
9.1542e-08 6.56058e-08 3.15002e-08
9.09386e-08 6.22065e-08 2.76254e-08
6.32751e-08 6.03013e-08 4.33455e-09
5.19916e-08 6.39656e-08 2.42587e-09
5.73726e-08 6.42077e-08 4.14112e-09
-3.11548e-08 5.92497e-08 -1.25827e-08
-2.96246e-08 6.12779e-08 -9.44529e-09
-7.60359e-09 -5.99538e-08 3.3402e-09
-6.95823e-09 6.58787e-08 -2.04086e-08
-7.0003e-09 6.77178e-08 -1.80104e-08
-2.38949e-09 -5.80841e-08 5.21496e-09
-1.66585e-08 -5.8219e-08 2.44411e-09
9.33501e-08 2.97534e-08 -1.49453e-09
-1.25183e-08 -2.43525e-08 2.56929e-09
-4.99553e-08 4.21542e-08 -2.20244e-08
-4.87911e-08 4.15775e-08 -2.47771e-08
-5.57359e-08 3.80028e-08 -2.29631e-08
8.7755e-08 3.04511e-08 5.31142e-10
1.276e-07 3.19707e-08 1.75873e-08
-7.71452e-08 4.2162e-10 -6.73449e-09
1.35736e-07 2.85249e-08 1.51245e-08
1.33181e-07 3.02898e-08 1.65377e-08
4.0147e-08 -9.32221e-09 -7.95146e-10
4.45583e-08 -1.49166e-08 -3.26735e-09
-4.64842e-08 4.2502e-08 -2.71803e-08
1.23898e-07 2.19001e-08 2.19002e-09