# vtk DataFile Version 2.0
S, Created by Mohamad Ibrahim Cheikh
ASCII
DATASET UNSTRUCTURED_GRID
POINTS 4978 double
-111.481 -35.9714 -28.0095
-127.565 31.3432 -25.0074
-126.19 34.0073 -22.2257
-100.565 39.2866 -28.608
-104.183 38.6322 -27.9056
-86.0334 -50.8469 -10.4124
-85.4327 -51.5956 -6.65827
-77.3402 49.3553 -20.7789
-80.283 47.717 -23.1086
-119.662 -9.92633 -41.8144
-20.0414 -8.67725 58.9536
-119.511 -5.90071 -42.6215
-110.418 -28.4495 -36.0275
11.9742 5.50331 -59.6
13.8619 2.55739 -59.7489
-107.423 -29.5923 -36.2151
-45.5814 50.6627 -27.9094
-44.2967 52.5495 -24.4608
35.815 -6.09296 58.3596
-130.331 33.7995 19.4433
-62.3197 31.0294 -46.4941
-58.849 32.0553 -46.3516
-132.997 33.9339 16.8218
-77.9703 -12.8598 -51.8686
-159.505 19.7669 -9.72085
-166.937 9.61927 9.78159
-23.972 15.607 -57.3242
-27.3987 15.2619 -57.2291
-166.841 6.43774 12.2765
-1.5062 -17.2877 57.4531
-11.0651 -59.8726 0.534782
-14.1532 -59.7176 3.04768
113.633 -25.5476 36.9659
109.908 -26.9832 37.3231
-141.569 7.059 33.1139
116.057 -40.3661 17.9327
-139.419 -21.6518 -27.4137
-142.803 -20.458 -26.1701
-1.24102 38.1609 -46.2986
-106.178 38.8321 26.6806
-83.5155 51.6318 8.95851
-87.7035 50.4823 10.4806
-110.444 38.5427 24.9224
147.883 28.1806 -11.3344
-156.934 -2.14268 -24.0884
-154.973 -6.07754 -24.9554
-105.234 43.2571 19.3143
-128.737 -37.0429 -14.1006
-124.77 -38.6617 -14.1211
48.4089 -54.2972 -19.1029
44.2253 -55.014 -18.276
2.8914 14.5562 -58.1987
6.8667 14.9362 -58.0615
-5.00677 16.0151 -57.7966
-65.39 53.6844 13.9464
-68.8397 53.5864 12.1791
-101.283 43.7881 20.6573
-91.5557 -20.0906 -46.5847
-89.3361 -22.8678 -45.8256
-97.6711 -8.70061 -48.5427
-144.548 5.54659 31.7999
-140.416 0.299052 34.4396
-4.81411 -14.1014 58.295
-96.616 -28.1833 -40.7786
-145.603 20.7452 23.962
-98.831 -30.8383 -38.1207
60.0573 -46.289 -31.8708
63.6387 -46.5085 -30.6781
108.811 14.084 44.1829
110.491 10.4492 44.6789
35.0547 -52.3908 -26.5473
39.1105 -51.5456 -27.4916
131.058 37.5996 -9.13542
132.142 35.9315 -13.0834
163.037 0.689323 18.5822
165.081 -1.64089 16.1552
0.756934 29.874 52.0334
-2.05107 27.2865 53.4316
41.4532 -48.0864 32.8227
44.8747 -48.0959 32.2529
115.31 -30.3748 32.3965
53.1334 -53.9984 18.3994
-87.1515 -32.9385 -39.8143
-54.6398 40.6325 -39.7931
-58.8452 38.9691 -40.7121
-103.928 -45.003 -15.8872
51.3609 -2.83281 -57.1754
-107.65 -44.2031 -15.0781
116.77 -27.5442 34.2347
-88.7138 50.9183 -6.61882
-81.0477 52.552 -5.83923
-85.0052 51.8595 -5.09446
-80.7635 -32.0095 42.1525
-79.566 -29.4677 44.2335
98.1706 -37.8743 31.3951
101.247 -35.2778 33.1736
100.398 -32.48 36.208
-39.9334 42.5247 39.9552
-95.3371 -47.1479 16.2579
-95.5744 -45.6755 19.8858
-145.649 31.55 -2.73569
-141.31 33.8109 -3.48536
-44.2967 44.7365 36.8567
-39.9424 45.3596 36.7041
-65.1302 55.1056 -6.63649
-60.527 55.6557 -7.34414
-161.168 -20.2878 2.89271
-160.346 -20.0521 7.08786
-162.301 -16.8983 9.46191
-85.7132 -36.019 -37.4592
17.9082 42.5579 -41.8277
22.5579 42.3775 -41.7355
-110.296 -45.9392 -0.489454
-91.2259 -32.6387 -38.9341
-130.33 16.7257 35.2239
-128.489 14.5105 36.9898
-130.365 11.1698 37.3442
-139.466 -9.81692 -33.5012
-58.242 38.3806 41.372
-60.5811 40.7602 38.5914
-65.0103 39.1168 39.4013
-68.0827 36.9463 40.835
119.313 -40.5442 14.6066
118.329 -42.0694 10.7688
114.458 -43.4053 10.5884
-76.7506 -52.6488 10.3407
-108.023 -32.1476 -33.7334
125.786 0.645056 -40.7743
125.423 -3.26064 -40.786
-104.821 -33.2146 -33.9357
-106.65 -37.7777 -27.9345
-67.8352 46.2572 -29.9484
-104.324 -36.1468 -30.9998
-110.847 -28.8471 35.5468
-114.678 -28.1567 34.6
-83.9283 -36.0802 37.8926
-117.13 -30.545 31.4225
35.431 -33.326 -48.329
36.3353 -28.1691 -51.4283
-60.8513 35.5312 43.4074
37.7851 -30.8929 -49.7075
-135.523 -34.3682 -13.0485
-134.2 -36.121 -9.50894
-130.608 -37.5033 -10.251
-126.399 -0.532224 -40.5431
-122.453 -0.88247 -41.9935
-119.545 1.30574 -42.9964
-150.053 -20.2026 20.8637
-149.959 -16.9721 23.6403
-153.435 -14.7421 22.3709
-156.464 -15.1924 19.2888
-151.034 -21.1471 -18.976
9.92434 -40.5865 -44.0531
14.5007 -41.4425 -43.0903
152.166 -0.411933 27.6607
151.987 -4.26069 27.4554
-149.133 -19.8046 -22.0214
-135.365 5.02737 -36.4886
-39.7777 30.2946 -49.8851
-38.4001 33.2389 -48.1108
-136.818 1.30763 -36.1466
-136.895 7.74963 -35.2937
43.1613 20.1892 54.4456
44.6069 25.7899 51.8775
-92.0135 -38.6166 -32.745
-87.8303 -38.8901 -33.8103
75.9965 -46.415 27.1768
-96.4713 -49.6041 -0.204928
71.919 -46.9408 27.6285
58.4917 51.5399 -22.9082
54.0302 51.8545 -23.5312
45.7154 22.306 53.3534
-95.9861 49.7191 0.224994
-92.732 50.2157 -5.06041
-92.1915 50.5776 -1.17205
75.0421 -44.5176 -30.4756
77.6685 -45.4668 -28.1824
-155.152 -25.3888 2.88942
13.9885 8.18831 59.2368
-27.1998 -51.4943 29.2877
-26.9194 -49.4694 32.62
11.0259 6.63838 59.5067
-71.4339 24.3182 48.8253
-7.75993 57.4659 17.0381
-3.86928 57.9143 15.6237
10.0998 3.48177 59.7946
-118.887 -39.9399 16.5654
-116.466 -39.7299 18.9975
-121.863 -35.0526 23.5207
-121.973 -38.3983 17.4406
-123.326 -36.3435 20.4234
1.88386 49.4427 33.985
-79.9608 43.189 30.8536
-12.696 14.5272 58.045
5.16836 50.5449 32.2792
-76.0161 46.5227 26.9853
-76.5887 44.72 29.6982
-42.7817 -41.8713 -40.283
-46.3909 -40.8381 -40.8506
-8.49801 -56.877 -18.8722
99.1113 42.4974 -24.318
98.012 40.7283 -27.661
16.2035 -17.112 57.2279
18.6567 -19.7725 56.2711
81.9989 31.3871 -42.3282
-46.8831 -37.7442 -43.6609
122.907 -38.8706 15.4819
-147.489 -30.0793 5.6654
-71.249 -43.9553 32.3488
57.0183 -55.5606 10.7237
58.6985 -55.9946 6.54104
-72.4809 -46.0275 28.9534
-77.3625 -51.5574 14.4608
-74.528 -51.1989 17.282
-44.6285 -46.8341 -34.0988
-42.5154 -44.8234 -37.0076
63.1193 37.7519 -41.0736
65.0961 40.1067 -38.3754
-151.886 -27.7811 1.97698
-119.83 -20.8848 37.4949
-125.723 -4.47162 40.5575
-19.4035 -10.4576 -58.6902
-22.7951 -8.27379 -58.8891
-124.114 -8.36575 40.5477
-150.329 -28.2875 5.75462
-158.511 -10.4576 -20.3615
-156.114 -9.10765 -23.0936
105.894 -46.1734 9.75593
102.102 -47.3178 9.20587
-117.69 43.3685 -4.84293
120.183 -10.9908 41.3629
118.27 -8.16071 42.6725
-124.493 41.1094 -3.54622
53.647 -9.22482 56.2366
50.4649 -7.23157 56.8851
-120.55 42.5712 -2.92632
152.477 -26.6874 6.43784
151.496 -26.4805 9.43251
-69.0259 21.9207 -50.3604
-73.1084 21.2486 -49.9414
42.6645 57.8054 5.97429
-152.245 2.62486 27.4851
-149.153 0.135738 29.6041
-108.627 33.9739 31.6412
-118.461 35.8289 -24.46
-25.9617 -26.6078 53.0048
-93.8864 -40.6102 -29.5239
-98.5869 -39.8074 -28.7308
146.176 -27.2502 15.5399
149.087 -25.8685 14.4788
-97.164 29.0434 -40.0084
42.8354 -5.65911 -57.8216
-100.194 26.8351 -40.6307
-110.721 38.0071 -25.5855
-114.222 37.9709 -23.6843
-82.5471 39.2085 35.0497
128.772 -25.3678 -30.4363
-79.5576 40.8702 33.9814
-119.951 33.4482 -26.8275
66.4016 -54.6075 8.84442
44.2712 -34.1957 -46.8049
48.2407 -34.4494 -46.1339
86.2519 31.2294 -41.3998
-112.257 43.6579 12.297
-110.982 42.9283 15.7871
86.108 26.1489 -44.8162
88.1146 28.3804 -42.9419
48.7265 8.53305 -56.8904
-80.6644 -48.7234 20.7227
-76.932 -48.2662 23.3622
-26.1235 21.5741 -55.2359
-151.823 -26.2255 9.50048
-128.732 20.5623 -33.8873
-37.8943 -33.7485 47.8041
-127.007 17.1275 -36.4941
-125.857 23.6296 -33.2027
-142.757 -10.0432 -31.6879
40.6922 1.27285 -58.2723
-143.029 -6.40715 -32.4718
-5.453 6.83692 59.5787
77.2012 -37.4704 -38.2924
-113.092 18.3844 41.185
-106.892 -23.3387 -40.6998
-103.61 -25.3414 -40.5408
83.2547 -34.2768 -39.7054
81.0107 -36.6348 -38.1371
-149.508 -2.05789 -29.3125
38.9344 -25.182 -52.7284
42.2693 -24.5418 -52.7159
-143.395 4.42641 -32.6047
-146.044 -1.8428 -31.3908
-143.649 0.370002 -32.7658
-123.965 31.5142 -26.9347
73.0113 -50.4749 -19.9918
15.4327 57.7766 -15.2547
10.6637 57.5131 -16.6828
73.5059 -48.6478 -23.9146
76.7979 -47.4464 -25.0356
-145.016 -31.3742 -6.4076
-141.018 -33.2375 -7.79082
101.36 -40.6081 -26.3286
96.6994 -39.0901 -30.4497
-128.058 9.10028 38.8527
-129.314 5.92845 38.9567
97.2271 -40.8925 -27.7577
-52.1545 22.7521 52.4341
6.10415 2.30868 59.9175
166.549 -13.2513 -5.33401
167.376 -10.6107 -7.59458
-47.9534 23.4993 52.5953
109.499 46.1707 -0.602857
116.027 44.1759 0.600882
113.202 45.0186 -2.11115
104.763 -24.9104 -40.445
100.729 -25.631 -41.2415
-8.81545 8.4692 59.3191
99.7404 -22.5379 -43.2912
-47.6973 42.8431 38.548
-44.3392 46.7921 34.2025
-35.6892 47.4394 34.548
-36.334 49.5328 31.3827
-157.172 -21.9014 9.79957
-155.058 -24.5876 7.20884
101.552 45.1305 -17.3401
97.4575 46.5935 -16.3168
39.7904 -58.3108 -2.45263
43.2713 -58.0513 -0.900154
87.0234 -45.4217 -24.6926
89.9301 -43.4667 -26.8427
-123.753 -38.9005 14.5538
103.688 45.556 -14.4369
-60.0737 50.3508 24.9595
-73.4889 49.5104 22.0804
-68.332 48.4793 26.0407
-64.0731 50.1019 24.2321
17.226 1.40579 59.6799
-97.2819 41.096 -27.4319
-93.5349 41.7973 -27.9625
-39.9624 -34.403 -47.1267
-31.8415 17.5618 -56.2802
-28.066 18.2538 -56.306
147.083 9.32782 29.4022
147.339 13.0393 27.7893
-37.8425 -37.3286 -45.0694
-38.9789 -40.1479 -42.4516
52.4284 -55.9486 11.5427
49.1443 -56.8731 8.353
-115.476 42.9124 11.2249
-156.137 9.52907 -22.9042
-139.407 10.6356 33.2806
-156.025 12.5194 -21.5156
-95.1911 47.3742 15.695
-104.265 46.5382 -10.1629
-107.355 45.1603 -12.2302
-90.0059 47.5288 18.6878
-91.1045 48.3723 15.6199
54.5425 -14.3755 55.0376
51.6624 -12.837 55.7535
-149.588 -24.7019 -15.8216
-145.865 -26.5101 -17.0995
3.14614 15.0149 58.0805
0.59239 17.9982 57.2365
-57.567 47.4769 -30.6632
-61.2927 46.6851 -30.9931
47.7025 -0.473672 -57.6298
44.0797 -1.78501 -57.9563
-64.0208 47.6729 -28.7317
-82.7165 -52.3409 -4.77283
-157.256 -16.8657 -16.9702
-154.597 -20.2677 -16.2236
15.6244 -52.213 29.0502
14.0139 -48.6726 34.741
-111.025 -33.5848 -31.0316
130.022 -37.6941 -10.4613
127.054 -39.2289 -9.20836
-145.09 -11.9332 -29.6711
-13.3937 29.2747 52.1635
-10.7379 31.8938 50.682
12.6971 -50.9106 31.4384
-100.166 48.3372 5.93149
-95.8871 49.5559 4.31037
-135.727 -3.04619 36.5431
53.5868 13.4232 55.3919
-132.964 -0.326138 37.8874
-132.112 3.56357 38.0858
-56.6191 -8.07617 56.0563
-59.833 -6.24106 55.8817
95.9262 31.2243 38.7104
[...]
POINT_DATA 4978
VECTORS F double
-4.50138e-08 3.93696e-08 -2.86267e-08
7.65458e-08 4.54087e-08 9.10958e-09
8.27481e-08 4.3667e-08 9.29607e-09
9.56609e-08 3.91544e-08 1.26006e-08
9.38519e-08 3.839e-08 1.025e-08
-7.33677e-08 1.86797e-08 -1.70031e-08
-7.70921e-08 1.75719e-08 -1.5065e-08
1.1995e-07 2.9313e-08 1.49672e-08
1.14535e-07 3.1989e-08 1.73391e-08
-1.58846e-10 5.76016e-08 -1.36184e-08
-1.91974e-08 4.05717e-08 5.17273e-09
8.31651e-09 5.93042e-08 -1.10653e-08
-2.95249e-08 4.854e-08 -2.72519e-08
-6.33169e-09 2.55791e-08 2.20612e-09
-1.2364e-08 2.09677e-08 5.46281e-10
-2.92088e-08 4.67241e-08 -2.75723e-08
1.35674e-07 2.65421e-08 2.10532e-08
1.41135e-07 2.46908e-08 2.17531e-08
-2.69686e-08 -5.2083e-09 1.48246e-09
7.721e-08 3.50797e-08 2.38052e-09
8.29289e-08 4.9895e-08 1.96906e-08
8.39992e-08 5.44846e-08 2.46234e-08
7.73273e-08 3.64883e-08 1.24171e-09
-2.32117e-09 6.3632e-08 -1.53491e-08
5.69244e-08 5.73568e-08 2.27983e-09
2.95106e-08 6.22646e-08 4.29019e-10
3.92777e-08 7.19117e-08 1.75676e-08
3.84778e-08 7.05257e-08 1.65525e-08
1.98698e-08 6.09896e-08 1.07759e-09
-4.25564e-08 2.01207e-08 5.91777e-09
-1.01875e-07 2.25424e-09 -5.68274e-09
-1.01266e-07 2.73771e-09 -3.92973e-09
-4.71394e-08 -3.04762e-08 -3.32206e-09
-4.81221e-08 -3.01926e-08 -4.4792e-09
2.37086e-08 4.54686e-08 2.71638e-09
-6.90781e-08 -2.57486e-08 -3.22747e-09
-2.72585e-08 4.75968e-08 -2.06208e-08
-2.77027e-08 4.79521e-08 -1.8979e-08
9.59546e-08 5.01241e-08 4.09991e-08
8.82605e-08 2.78392e-08 2.48302e-09
1.18625e-07 2.18614e-08 9.3922e-09
1.15656e-07 2.31289e-08 7.08236e-09
8.5866e-08 2.74875e-08 4.0757e-09
4.98694e-08 -3.27702e-08 -1.81843e-09
4.73697e-09 6.26667e-08 -9.35261e-09
-3.06937e-09 5.75403e-08 -1.16797e-08
9.64085e-08 2.58077e-08 6.50878e-09
-5.25447e-08 2.99223e-08 -1.98758e-08
-5.18638e-08 2.82102e-08 -2.11338e-08
-8.96848e-08 -8.29636e-09 -4.24297e-09
-9.05858e-08 -7.45106e-09 -4.40756e-09
1.34032e-08 4.05185e-08 1.02157e-08
1.44873e-08 3.67689e-08 9.66847e-09
2.36473e-08 5.1275e-08 1.39572e-08
1.29521e-07 1.83055e-08 3.88339e-09
1.26794e-07 1.84247e-08 6.67413e-09
9.89872e-08 2.607e-08 4.15608e-09
-1.17519e-08 5.96856e-08 -2.29131e-08
-1.58429e-08 5.46232e-08 -2.34768e-08
8.28739e-09 6.10249e-08 -1.29794e-08
2.16959e-08 4.4414e-08 4.32707e-09
1.10317e-08 4.51671e-08 5.1143e-09
-3.71276e-08 2.6445e-08 6.02161e-09
-2.9314e-08 5.07876e-08 -2.6598e-08
5.17193e-08 4.53321e-08 -7.71749e-10
-3.27938e-08 4.82453e-08 -2.86199e-08
-7.70003e-08 -1.12431e-08 -1.4347e-09
-7.64189e-08 -1.15997e-08 -1.82208e-09
1.3205e-08 -3.79087e-08 8.10265e-09
8.16986e-09 -4.09077e-08 7.0937e-09
-8.80121e-08 -4.33534e-09 -5.67223e-09
-8.70461e-08 -5.20113e-09 -5.4089e-09
6.11046e-08 -2.61528e-08 -3.19188e-10
5.67002e-08 -2.63354e-08 -2.21609e-09
-2.98093e-09 -5.0396e-08 5.07168e-09
-6.73502e-09 -5.25606e-08 3.08738e-09
6.30073e-08 4.63441e-08 -2.67198e-08
5.97298e-08 4.91826e-08 -2.48359e-08
-8.30762e-08 -9.42363e-09 -9.60887e-10
-8.25712e-08 -1.00134e-08 -8.67251e-10
-5.47769e-08 -2.93817e-08 -3.67857e-09
-8.90572e-08 -1.16152e-08 -2.60284e-09
-3.69643e-08 4.70447e-08 -2.90144e-08
1.04253e-07 4.16445e-08 2.49976e-08
1.00993e-07 4.25179e-08 2.28264e-08
-6.0558e-08 2.52442e-08 -2.30096e-08
-1.37592e-08 -1.40029e-08 -8.19389e-10
-6.14012e-08 2.58043e-08 -2.19799e-08
-4.82479e-08 -3.11385e-08 -4.90571e-09
1.1832e-07 2.67992e-08 1.2013e-08
1.23145e-07 2.45919e-08 1.20672e-08
1.21198e-07 2.53084e-08 1.00471e-08
-4.42162e-08 3.62374e-08 1.71461e-08
-3.81187e-08 3.60949e-08 1.56515e-08
-6.55824e-08 -2.38607e-08 -3.67864e-09
-6.16577e-08 -2.64153e-08 -5.05236e-09
-5.68111e-08 -2.56188e-08 -3.6956e-09
1.11414e-07 2.159e-08 -9.3458e-09
-6.86384e-08 1.89156e-08 5.57866e-09
-6.37552e-08 1.95605e-08 7.41471e-09
7.76922e-08 4.42903e-08 4.38704e-09
8.07945e-08 4.1964e-08 6.05094e-09
1.15286e-07 1.94384e-08 -6.63111e-09
1.169e-07 2.14985e-08 -1.09938e-08
1.35113e-07 2.09354e-08 1.14992e-08
1.37234e-07 1.99819e-08 1.29608e-08
-4.39483e-08 4.2261e-08 -3.37911e-09
-4.28247e-08 4.15259e-08 -1.1277e-09
-3.76773e-08 4.51737e-08 1.5547e-09
-4.46322e-08 4.23422e-08 -2.82114e-08
9.62663e-08 2.34452e-08 2.89004e-08
9.66133e-08 1.73005e-08 2.39597e-08
-6.61956e-08 1.95782e-08 -1.13577e-08
-3.80301e-08 4.64167e-08 -2.80023e-08
4.24617e-08 4.00065e-08 2.37742e-10
3.99581e-08 3.82002e-08 2.00758e-09
3.29818e-08 4.06184e-08 1.94661e-09
-5.91378e-09 5.764e-08 -1.38763e-08
1.00456e-07 2.38876e-08 -4.84698e-09
1.01379e-07 2.46053e-08 -6.50449e-09
9.85995e-08 2.39388e-08 -3.84901e-09
9.24597e-08 2.59338e-08 -4.59147e-09
-6.85717e-08 -2.58607e-08 -3.20868e-09
-7.14235e-08 -2.53822e-08 -3.07588e-09
-7.23076e-08 -2.41273e-08 -3.21372e-09
-8.13705e-08 1.46839e-08 8.22924e-10
-3.74066e-08 4.56375e-08 -2.88272e-08
-1.61625e-09 -3.39185e-08 -1.14702e-09
-9.77318e-09 -3.36739e-08 -9.87383e-10
-3.70724e-08 4.35484e-08 -2.86041e-08
-4.49966e-08 3.63209e-08 -2.80876e-08
1.1576e-07 3.45477e-08 2.12603e-08
-4.48638e-08 4.02477e-08 -2.84461e-08
-3.50996e-08 3.05999e-08 1.14327e-08
-3.61924e-08 3.01261e-08 9.83018e-09
-5.21871e-08 3.27723e-08 1.70536e-08
-3.89185e-08 2.87507e-08 1.01872e-08
-6.40027e-08 -1.81099e-09 -4.49565e-09
-5.6719e-08 -1.64666e-09 -4.00413e-09
9.08823e-08 2.76057e-08 -6.999e-09
-6.01027e-08 -3.77819e-09 -3.2452e-09
-4.94471e-08 3.10068e-08 -1.87945e-08
-5.34714e-08 2.86207e-08 -1.63319e-08
-5.27151e-08 2.74526e-08 -1.82084e-08
1.58984e-08 5.65567e-08 -6.8106e-09
1.74918e-08 5.81023e-08 -7.46555e-09
2.06338e-08 5.88115e-08 -5.23753e-09
-3.42754e-08 3.75244e-08 6.15576e-09
-2.69035e-08 3.96106e-08 7.54461e-09
-2.65647e-08 4.39589e-08 6.66239e-09
-2.87175e-08 4.33117e-08 5.59472e-09
-3.35653e-08 4.47388e-08 -1.71509e-08
-7.70415e-08 9.60135e-09 -1.09706e-08
-7.70501e-08 6.826e-09 -9.73937e-09
-6.17013e-09 -4.57877e-08 3.47382e-09
-1.51315e-08 -4.59436e-08 3.12534e-09
-2.99452e-08 4.67373e-08 -1.72052e-08
2.75171e-08 5.62714e-08 -4.74466e-09
8.28816e-08 5.92072e-08 2.78648e-08
9.36564e-08 5.59365e-08 2.94937e-08
1.80889e-08 5.81696e-08 -6.27805e-09
3.16178e-08 5.89241e-08 -2.07579e-09
2.0402e-08 -1.13779e-08 2.23896e-09
3.31772e-08 -1.18696e-08 2.40825e-09
-4.98774e-08 3.88823e-08 -2.86956e-08
-4.87375e-08 3.97954e-08 -3.02744e-08
-7.79247e-08 -1.7532e-08 -3.26522e-09
-7.01165e-08 1.67355e-08 -9.90532e-09
-7.87459e-08 -1.72551e-08 -4.22118e-09
1.33153e-07 -2.27651e-08 -9.59511e-09
1.32634e-07 -1.94311e-08 -5.53529e-09
2.42673e-08 -1.45761e-08 3.54829e-09
1.13688e-07 2.68305e-08 8.82136e-09
1.15872e-07 2.71578e-08 9.53831e-09
1.16195e-07 2.61754e-08 1.06083e-08
-7.32658e-08 -1.35474e-08 -2.29712e-09
-7.32324e-08 -1.42025e-08 -1.79554e-09
-4.8753e-08 3.60091e-08 -4.09181e-09
-2.85342e-09 2.23145e-08 -3.00206e-09
-8.99182e-08 1.0927e-08 8.98848e-09
-8.66048e-08 1.16831e-08 8.968e-09
-4.20381e-09 2.35912e-08 -2.53639e-09
6.17017e-08 3.66623e-08 -7.20842e-09
1.65618e-07 2.07157e-09 2.24782e-09
1.7149e-07 7.24392e-10 2.51432e-09
-1.02057e-08 2.47367e-08 -1.22932e-09
-5.47704e-08 2.04163e-08 1.10139e-09
-5.58699e-08 2.22294e-08 4.55583e-09
-4.8893e-08 2.40879e-08 4.88502e-09
-5.52647e-08 2.20162e-08 1.15416e-09
-5.08122e-08 2.33511e-08 3.98946e-09
1.57636e-07 1.57326e-08 -2.39582e-08
1.01789e-07 2.45525e-08 -2.07273e-09
2.36753e-08 5.23594e-08 -1.24702e-08
1.56656e-07 1.71158e-08 -2.98718e-08
1.11141e-07 2.27485e-08 -8.89517e-10
1.04384e-07 2.2663e-08 -1.16966e-09
-6.95895e-08 3.2896e-08 -2.5145e-08
-6.92672e-08 3.64797e-08 -2.68383e-08
-9.72229e-08 5.78241e-09 -1.20673e-08
6.97857e-08 -2.46715e-08 -8.29455e-09
6.41054e-08 -2.39969e-08 -7.5245e-09
-4.48678e-08 7.9691e-09 3.9382e-09
-4.86331e-08 3.866e-09 3.33251e-09
4.96869e-08 -2.89201e-08 -9.66076e-09
-6.1127e-08 3.98217e-08 -2.63894e-08
-6.74039e-08 -2.74269e-08 -3.35043e-09
-4.99285e-08 2.92795e-08 -3.67658e-09
-6.77416e-08 2.30636e-08 1.30723e-08
-9.08576e-08 -1.19242e-08 -2.63721e-09
-9.10959e-08 -1.20766e-08 -3.29954e-09
-7.06927e-08 2.18425e-08 1.30575e-08
-7.76677e-08 1.50656e-08 2.84454e-09
-7.94287e-08 1.62597e-08 6.23504e-09
-7.68615e-08 2.7946e-08 -2.60677e-08
-7.67244e-08 3.02101e-08 -2.57992e-08
6.8705e-08 -2.39009e-08 -9.04204e-09
7.69487e-08 -2.6684e-08 -1.19077e-08
-4.96265e-08 3.28326e-08 -5.39987e-09
-2.2705e-08 3.39227e-08 1.00115e-08
4.88502e-09 4.2554e-08 6.54568e-09
-2.66322e-08 5.19243e-08 -8.17412e-09
-2.2729e-08 5.91233e-08 -7.22957e-09
-6.62365e-10 3.91483e-08 7.82885e-09
-5.03096e-08 3.20922e-08 -3.14583e-09
-1.57975e-08 5.6762e-08 -1.40968e-08
-1.19587e-08 5.75397e-08 -1.27954e-08
-7.67379e-08 -2.22466e-08 -3.31546e-09
-7.76628e-08 -2.11754e-08 -3.3876e-09
9.95358e-08 3.41686e-08 9.8474e-09
-2.37767e-08 -3.75269e-08 -1.51366e-09
-2.01245e-08 -3.52335e-08 9.04234e-11
9.47464e-08 3.58145e-08 7.96692e-09
-2.86087e-08 -1.93882e-08 1.6082e-10
-2.72988e-08 -1.65901e-08 8.55863e-10
9.68949e-08 3.41441e-08 8.04054e-09
-5.41578e-08 -3.85184e-08 -2.6373e-09
-5.37569e-08 -3.84413e-08 -2.21655e-09
6.17884e-08 5.82583e-08 1.49901e-08
6.09088e-08 5.52948e-08 1.26103e-08
5.1816e-07 -4.84929e-09 -5.22852e-07
1.2593e-08 5.06079e-08 3.7069e-09
9.83169e-09 4.70201e-08 5.84883e-09
7.76889e-08 2.93053e-08 1.18691e-09
8.65743e-08 4.20527e-08 1.02672e-08
-5.27807e-08 3.08703e-08 1.23316e-08
-5.17966e-08 3.57255e-08 -2.89752e-08
-5.26004e-08 3.59507e-08 -2.77136e-08
-5.29058e-08 -3.7105e-08 -4.1394e-09
-5.15514e-08 -3.79631e-08 -2.83989e-09
7.44882e-08 4.86859e-08 1.31956e-08
-2.26304e-08 -8.07178e-09 -1.26252e-09
7.02434e-08 5.00954e-08 1.18796e-08
9.1745e-08 4.07155e-08 1.18761e-08
8.9463e-08 3.95154e-08 1.05302e-08
9.26936e-08 2.49297e-08 -1.16102e-09
-4.33622e-08 -2.85783e-08 1.35879e-09
9.60531e-08 2.36421e-08 -9.03501e-10
8.00397e-08 4.381e-08 1.08086e-08
-8.8732e-08 -1.37832e-08 -3.54295e-09
-6.37721e-08 -6.97954e-09 -2.28555e-09
-6.2783e-08 -6.97743e-09 -2.82716e-09
4.99286e-08 -2.74718e-08 -7.98815e-09
9.829e-08 2.92427e-08 6.03e-09
9.65944e-08 2.78459e-08 7.41511e-09
3.90188e-08 -2.90104e-08 -7.74848e-09
4.4123e-08 -3.10158e-08 -9.41413e-09
3.31067e-09 -1.50638e-08 -1.91226e-09
-7.29589e-08 1.80331e-08 7.63079e-09
-7.34703e-08 1.92697e-08 1.01914e-08
6.03964e-08 6.77308e-08 2.29574e-08
-4.69374e-08 3.32996e-08 9.11351e-11
5.55485e-08 5.40066e-08 6.936e-09
-6.02997e-08 3.13323e-08 1.62679e-08
4.99039e-08 5.22949e-08 3.2806e-09
6.22432e-08 5.04502e-08 7.01931e-09
-7.44626e-09 5.53048e-08 -1.34216e-08
-1.19489e-08 -6.58762e-09 -1.16544e-09
1.03077e-09 5.73498e-08 -1.18718e-08
4.92562e-09 4.07385e-08 -4.61972e-09
-6.22818e-08 -1.54722e-08 -2.3257e-10
4.60427e-08 3.82008e-08 -1.57382e-09
-2.05995e-08 5.39155e-08 -2.42936e-08
-2.09109e-08 5.12728e-08 -2.55071e-08
-5.67933e-08 -1.74648e-08 4.97801e-10
-6.14909e-08 -1.52618e-08 -1.33059e-09
7.44599e-09 5.72667e-08 -8.66999e-09
-5.20386e-08 -4.34309e-09 -2.63005e-09
-5.11866e-08 -5.16134e-09 -2.62191e-09
2.45033e-08 5.8762e-08 -5.21583e-09
9.06887e-09 5.83477e-08 -8.5909e-09
1.33259e-08 5.80496e-08 -6.49698e-09
7.79378e-08 4.59123e-08 9.80352e-09
-8.2016e-08 -1.34512e-08 -2.70885e-09
2.03752e-07 -1.04727e-09 2.12684e-08
1.98191e-07 2.29745e-09 2.34297e-08
-7.83132e-08 -1.31523e-08 -2.71463e-09
-7.71433e-08 -1.40877e-08 -2.27269e-09
-5.17328e-08 3.17728e-08 -1.22338e-08
-5.1157e-08 3.00195e-08 -1.47074e-08
-6.56608e-08 -1.89566e-08 -1.70936e-09
-6.23518e-08 -1.78747e-08 -1.29505e-09
3.13785e-08 3.86596e-08 3.60674e-09
2.47582e-08 4.00212e-08 3.97097e-09
-6.6683e-08 -1.90394e-08 -5.46574e-10
5.96934e-08 3.75427e-08 -9.0213e-09
-1.12858e-08 2.5785e-08 -8.52738e-10
-3.26153e-08 -5.04004e-08 5.31518e-10
-2.59455e-08 -5.10271e-08 1.28641e-09
6.06987e-08 4.11519e-08 -1.16112e-08
7.39421e-08 -2.14074e-08 4.71647e-09
7.03763e-08 -2.27193e-08 6.60695e-09
7.33391e-08 -2.24526e-08 2.66114e-09
-4.13743e-08 -2.12765e-08 -1.61511e-11
-4.21474e-08 -2.30626e-08 1.73028e-09
7.41222e-09 4.67566e-08 -6.54072e-09
-3.71179e-08 -2.1543e-08 7.45911e-10
1.09729e-07 2.23878e-08 -8.2601e-09
1.18538e-07 1.96486e-08 -8.06786e-09
1.24782e-07 1.62243e-08 -6.49713e-09
1.26995e-07 1.64761e-08 -8.00453e-09
-4.33331e-08 3.85522e-08 1.07497e-09
-4.66505e-08 3.54891e-08 -1.80086e-09
7.62499e-08 -2.34429e-08 -6.34391e-09
7.68469e-08 -2.14419e-08 -5.03579e-09
-9.57053e-08 -7.82506e-09 -4.04976e-09
-9.49865e-08 -8.60571e-09 -4.02482e-09
-7.35478e-08 -1.58233e-08 -2.62649e-09
-7.03287e-08 -1.73707e-08 -7.17675e-10
-5.3979e-08 2.08188e-08 -5.46481e-10
7.4467e-08 -2.21482e-08 -4.41172e-09
1.22446e-07 1.98035e-08 -3.86933e-09
1.15537e-07 2.08046e-08 4.27731e-10
1.16824e-07 2.12028e-08 -1.9426e-09
1.20399e-07 1.90567e-08 -4.26554e-10
-1.50581e-08 1.482e-08 1.83023e-10
9.91583e-08 3.72326e-08 1.27277e-08
1.01014e-07 3.86761e-08 1.64446e-08
-5.9089e-08 4.27895e-08 -2.51026e-08
5.03773e-08 7.06842e-08 1.8567e-08
5.06934e-08 7.29041e-08 2.05412e-08
1.02142e-08 -4.26785e-08 7.28425e-09
1.91854e-08 -4.24981e-08 7.4876e-09
-6.59543e-08 3.7182e-08 -2.40161e-08
-6.9692e-08 3.5354e-08 -2.56013e-08
-9.1705e-08 -1.11242e-08 -2.92498e-09
-9.30892e-08 -1.02335e-08 -2.62552e-09
9.62541e-08 2.98271e-08 7.20074e-09
3.14363e-08 6.08472e-08 -9.21139e-10
3.24568e-08 4.18737e-08 3.26305e-09
3.89706e-08 6.0698e-08 7.20416e-10
1.08407e-07 2.44007e-08 6.84309e-09
1.06879e-07 3.14057e-08 9.57191e-09
1.03297e-07 3.31491e-08 1.13967e-08
1.08897e-07 2.30172e-08 5.67038e-09
1.09584e-07 2.36265e-08 5.08275e-09
-3.58716e-08 -1.79562e-08 -3.37906e-10
-3.55771e-08 -1.62582e-08 2.92639e-10
-4.08857e-08 4.05945e-08 -1.60538e-08
-4.0555e-08 3.93335e-08 -1.86272e-08
1.66853e-08 3.83214e-08 -1.00174e-08
2.65998e-08 4.6377e-08 -1.46171e-08
1.22149e-07 3.24697e-08 2.2199e-08
1.19922e-07 3.20629e-08 1.92617e-08
-1.29298e-08 -1.18951e-08 -1.21253e-09
-1.43183e-08 -1.00599e-08 -1.02338e-09
1.19077e-07 3.18156e-08 2.03064e-08
-7.89655e-08 1.62335e-08 -1.04793e-08
-3.03536e-08 4.96869e-08 -1.49455e-08
-3.44351e-08 4.39108e-08 -1.4684e-08
-9.0676e-08 -2.53729e-09 1.41031e-09
-8.65201e-08 -1.267e-09 2.49771e-09
-3.75951e-08 4.1681e-08 -2.8643e-08
-6.54138e-08 -2.74391e-08 -6.66595e-10
-6.71207e-08 -2.61975e-08 -1.77549e-09
-1.08437e-08 5.37082e-08 -1.5109e-08
7.3536e-08 4.69497e-08 -2.40372e-08
7.94666e-08 4.24138e-08 -2.46294e-08
-8.98184e-08 -1.06199e-09 2.72134e-09
1.1022e-07 2.70478e-08 7.45278e-09
1.13298e-07 2.59847e-08 9.81926e-09
5.27853e-09 4.39798e-08 6.06635e-09
8.85439e-09 -2.03678e-08 3.88709e-09
1.11663e-08 4.15497e-08 5.1553e-09
2.16179e-08 4.0773e-08 5.36557e-09
-1.57725e-09 4.77675e-08 6.68693e-09
-1.22478e-09 5.00137e-08 5.42516e-09
4.35743e-08 -3.24186e-08 1.29297e-08
3.97771e-08 -3.56468e-08 1.34657e-08
3.98731e-08 -3.35957e-08 1.32229e-08
-5.48964e-08 3.33634e-08 -2.81087e-08
-5.39048e-08 3.0012e-08 -2.57547e-08
-5.30781e-08 3.36121e-08 -2.7598e-08
-7.13722e-09 3.77642e-08 8.1365e-09
-5.863e-09 4.09738e-08 9.23511e-09
-4.79956e-08 -6.50199e-09 1.47937e-09
-4.26291e-08 -9.62204e-09 6.65342e-10
1.43034e-09 3.96988e-08 7.73197e-09
-2.62652e-09 -4.26865e-08 3.07011e-09
-2.52609e-10 -4.3472e-08 4.68665e-09
3.36248e-08 5.27984e-08 -7.88423e-09
-2.48158e-09 -4.27373e-08 4.56381e-09
5.35343e-09 -4.76142e-08 -1.99568e-09
8.29144e-10 -5.07234e-08 -7.94059e-11
-4.40466e-08 4.4783e-08 -3.00744e-08
8.47328e-08 2.6346e-08 7.76606e-10
-9.18324e-09 6.4535e-08 -1.92509e-08
-8.76353e-09 5.90044e-08 -1.9498e-08
-2.04471e-09 6.38908e-08 -1.74584e-08
2.59404e-08 -4.20114e-08 -3.62605e-09
2.55846e-08 -4.2798e-08 -4.14452e-09
2.80258e-08 -3.97395e-08 -5.00882e-09
-8.34745e-08 -1.25755e-08 -3.40402e-09
6.14786e-09 3.83243e-08 6.19341e-09
1.18589e-08 4.15283e-08 4.73947e-09
1.23485e-07 3.08883e-08 2.14644e-08
2.17718e-08 4.14846e-08 2.21055e-09
1.92209e-08 3.99879e-08 3.9842e-09
1.17166e-07 2.62412e-08 -3.88604e-08
1.05077e-07 1.85578e-08 -2.77958e-08
-1.63017e-08 1.67386e-08 2.81952e-10
1.03003e-07 1.95051e-08 -3.15767e-08
-3.08702e-08 3.90386e-08 1.57545e-08
-3.0065e-08 3.93474e-08 1.66743e-08
3.05582e-08 3.81101e-08 1.72117e-09
-1.70106e-08 6.18363e-08 -8.33269e-09
-5.80059e-08 2.20445e-08 -5.27174e-09
-5.73231e-08 2.04904e-08 -4.63542e-09
2.75244e-08 -2.70766e-08 -6.08021e-09
1.21841e-07 2.91207e-08 1.55786e-08
1.24375e-07 2.74232e-08 1.53889e-08
-8.77497e-09 6.32343e-08 -8.21561e-09
1.43125e-07 1.71782e-08 1.04511e-08
6.75332e-08 5.58008e-08 1.67629e-08
7.48994e-08 5.51035e-08 1.91755e-08
1.4079e-07 1.83772e-08 1.04986e-08
3.85159e-08 -2.99286e-08 -7.53122e-09
-8.43901e-08 -9.69218e-09 -3.60437e-09
-8.52243e-08 -9.16781e-09 -3.16476e-09
-9.62715e-08 -5.07579e-09 -1.0597e-09
-8.39659e-08 -1.03123e-08 -3.31096e-09
9.1862e-08 4.29663e-08 1.93487e-08
-5.05518e-08 2.88954e-08 -9.62028e-10
5.20785e-08 5.14261e-08 -1.92802e-08
4.70486e-08 5.38782e-08 -1.74379e-08
1.04813e-07 3.84964e-08 2.06603e-08
1.05656e-07 4.15669e-08 2.62204e-08
8.54498e-08 3.76056e-08 4.34178e-09
8.31363e-08 3.96211e-08 3.79522e-09
9.95498e-08 4.15747e-08 2.16193e-08
1.34555e-07 2.2931e-08 1.50802e-08
1.32381e-07 2.40124e-08 1.42414e-08
1.38297e-07 2.415e-08 1.8028e-08
-1.00475e-07 5.38796e-09 -1.00464e-08
-1.01356e-07 3.22828e-09 -8.17253e-09
-9.9848e-08 4.57959e-09 -1.01298e-08
7.75069e-08 -2.11281e-08 6.25178e-09
1.11328e-07 2.28886e-08 -6.00282e-09
1.09211e-07 2.11185e-08 -1.56917e-09
1.05873e-07 2.26227e-08 -2.02671e-09
-5.78748e-08 2.54699e-08 1.43988e-08
6.88051e-08 3.43755e-08 2.26267e-09
7.03299e-08 3.64999e-08 2.12207e-10
1.21894e-07 2.86988e-08 1.67006e-08
1.26152e-07 2.6248e-08 1.36789e-08
1.28633e-07 1.60282e-08 -4.032e-09
-7.88905e-08 -1.8688e-08 -2.14997e-09
-8.13053e-08 -1.84581e-08 -2.89447e-09
-8.28038e-08 -1.68732e-08 -3.01921e-09
-8.21734e-08 -1.74458e-08 -2.89843e-09
1.30428e-07 1.6273e-08 -6.11954e-09
-4.75253e-08 2.80641e-08 3.07272e-09
-3.90633e-08 3.28913e-08 7.09618e-09
-3.98309e-08 2.99205e-08 6.42546e-09
-4.49427e-08 2.85215e-08 4.23757e-09
4.16971e-09 5.91786e-08 -1.33774e-08
4.24538e-09 6.04948e-08 -1.16889e-08
6.87141e-08 4.97338e-08 6.10876e-09
6.56824e-08 5.18778e-08 3.87819e-09
-6.79085e-08 -1.10209e-08 -1.83826e-09
-7.13909e-08 -1.22744e-08 -7.74777e-10
1.56016e-07 6.27138e-09 -1.60034e-09
1.53034e-07 7.39616e-09 -8.52519e-10
7.27997e-08 2.81233e-08 8.86905e-11
6.94978e-08 3.05567e-08 -3.46534e-10
-4.36185e-08 3.21204e-08 4.4996e-09
-4.79589e-08 2.90225e-08 8.62094e-10
-3.79048e-08 2.90188e-08 -6.4928e-09
1.43497e-07 2.24847e-08 1.96203e-08
1.47496e-07 1.96983e-08 1.64789e-08
1.49496e-07 1.85033e-08 1.6992e-08
1.51902e-07 1.89126e-08 1.82919e-08
3.30166e-08 3.90561e-08 1.80522e-09
-9.20912e-08 -1.00031e-08 -2.41672e-09
-9.13959e-08 -1.07985e-08 -2.11307e-09
3.93113e-08 3.65994e-08 2.08459e-09
3.81162e-08 5.67967e-08 -1.78889e-09
2.95972e-08 5.69352e-08 -3.54231e-09
-2.12332e-08 4.87224e-08 -1.70491e-08
-1.71577e-08 5.38436e-08 -1.5784e-08
-1.89133e-08 5.24803e-08 -1.3903e-08
-3.46318e-08 4.30444e-08 -2.62297e-08
-3.35573e-08 4.63004e-08 -2.94497e-08
-2.70676e-08 4.66314e-08 -2.62321e-08
-4.37008e-09 5.64772e-08 -1.67531e-08
-9.13597e-09 5.25532e-08 -1.7341e-08
-5.70931e-08 -2.33591e-08 2.42629e-11
-5.81722e-08 -2.36463e-08 1.19575e-09
-5.31839e-08 -8.53e-09 -1.7225e-09
-5.35212e-08 -1.03077e-08 -9.99207e-10
-5.95317e-09 5.51707e-08 -1.51241e-08
8.58397e-08 5.49253e-08 2.80501e-08
8.69147e-08 5.64086e-08 2.69759e-08
8.62441e-08 5.39204e-08 2.37213e-08
5.90929e-08 5.46087e-08 3.54035e-09
4.89108e-08 5.78954e-08 1.89644e-09
5.38241e-08 5.81273e-08 3.40448e-09
-2.71851e-08 5.40012e-08 -1.12938e-08
-2.58343e-08 5.60778e-08 -8.45942e-09
-8.11048e-09 -5.53853e-08 2.77689e-09
-3.25532e-09 5.84751e-08 -1.8217e-08
-3.32311e-09 6.0185e-08 -1.61061e-08
-3.1337e-09 -5.36076e-08 4.41562e-09
-1.63977e-08 -5.36042e-08 2.02515e-09
8.65432e-08 2.7458e-08 -1.64968e-09
-1.01872e-08 -1.97612e-08 2.02445e-09
-4.35289e-08 3.76663e-08 -1.97539e-08
-4.23383e-08 3.70491e-08 -2.21277e-08
-4.85508e-08 3.37869e-08 -2.04519e-08
8.13393e-08 2.80593e-08 2.76578e-10
1.18276e-07 2.86598e-08 1.48944e-08
-7.01704e-08 9.91935e-11 -5.7776e-09
1.25737e-07 2.56082e-08 1.26283e-08
1.23346e-07 2.71851e-08 1.39241e-08
3.82541e-08 -8.286e-09 -4.3303e-10
4.21458e-08 -1.33634e-08 -2.63394e-09
-3.99416e-08 3.7775e-08 -2.42625e-08
1.14727e-07 2.01771e-08 1.55823e-09
5.03703e-08 5.46384e-08 6.17278e-09