# vtk DataFile Version 2.0
S, Created by Mohamad Ibrahim Cheikh
ASCII
DATASET UNSTRUCTURED_GRID
POINTS 4978 double
-111.695 -35.7818 -28.1475
-127.19 31.5633 -24.9642
-125.786 34.219 -22.1817
-100.097 39.4759 -28.5482
-103.724 38.818 -27.8572
-86.3854 -50.7571 -10.4934
-85.8029 -51.5111 -6.72976
-76.7535 49.497 -20.708
-79.7226 47.8716 -23.0262
-119.659 -9.64817 -41.8804
-20.1279 -8.47309 58.9797
-119.467 -5.61437 -42.6752
-110.557 -28.2156 -36.159
11.9472 5.62988 -59.5888
13.8047 2.66118 -59.746
-107.56 -29.3673 -36.348
-44.9172 50.79 -27.8095
-43.606 52.668 -24.3576
35.6859 -6.11307 58.3671
-129.953 33.9709 19.4541
-61.9116 31.2689 -46.4003
-58.4354 32.3165 -46.2341
-132.619 34.1121 16.827
-77.9749 -12.553 -51.9428
-159.226 20.0457 -9.71025
-166.791 9.92272 9.78381
-23.7715 15.9576 -57.2379
-27.202 15.6053 -57.1479
-166.741 6.73524 12.2819
-1.70945 -17.1837 57.4836
-11.5603 -59.8613 0.50968
-14.6453 -59.7039 3.03141
113.403 -25.6947 36.9505
109.673 -27.1289 37.3021
-141.451 7.28124 33.1276
115.719 -40.491 17.9185
-139.549 -21.4215 -27.5135
-142.935 -20.2258 -26.262
-0.761635 38.4028 -46.0994
-105.746 38.9683 26.692
-82.9353 51.7384 9.00302
-87.1379 50.5952 10.514
-110.023 38.6772 24.9415
148.127 28.019 -11.345
-156.909 -1.83833 -24.1338
-154.986 -5.79814 -25.0121
-104.763 43.3833 19.3451
-128.989 -36.8988 -14.196
-125.018 -38.5259 -14.2225
47.9713 -54.338 -19.1219
43.7834 -55.0507 -18.2957
2.96269 14.7555 -58.1481
6.94319 15.1177 -58.0134
-4.88394 16.2662 -57.7277
-64.7566 53.7737 13.9643
-68.2195 53.6763 12.2104
-100.798 43.9156 20.6767
-91.6073 -19.8031 -46.6952
-89.4071 -22.6046 -45.9391
-97.6265 -8.4066 -48.6055
-144.44 5.76373 31.8214
-140.359 0.519773 34.4651
-4.99023 -13.9661 58.3258
-96.7529 -27.9387 -40.907
-145.349 20.9667 23.958
-98.9852 -30.6058 -38.2588
59.6814 -46.3445 -31.8767
63.2655 -46.5657 -30.6858
108.877 13.9003 44.2213
110.532 10.2508 44.7125
34.6256 -52.4125 -26.5735
38.6862 -51.5714 -27.5167
131.357 37.4706 -9.13894
132.42 35.8015 -13.0961
163.022 0.443299 18.6063
165.046 -1.89765 16.1697
1.07562 30.1043 51.8998
-1.74899 27.5313 53.3072
41.0484 -48.1301 32.8208
44.4725 -48.1427 32.2514
115.043 -30.5167 32.3796
52.699 -54.054 18.3894
-87.3253 -32.7116 -39.9545
-54.1277 40.8321 -39.6744
-58.3494 39.1731 -40.6035
-104.218 -44.8817 -15.9976
51.2945 -2.90156 -57.1792
-107.944 -44.079 -15.1836
116.534 -27.6948 34.2116
-88.1352 51.0485 -6.56206
-80.4455 52.6715 -5.78228
-84.4126 51.9825 -5.04723
-80.9725 -31.8316 42.2381
-79.7451 -29.2904 44.3117
97.8504 -37.9892 31.3787
100.946 -35.4051 33.1503
100.121 -32.6032 36.1912
-39.3856 42.6293 39.9103
-95.6659 -47.0561 16.2875
-95.8793 -45.5804 19.9243
-145.269 31.7655 -2.7152
-140.915 34.0151 -3.45687
-43.7305 44.8308 36.8249
-39.3681 45.4637 36.6512
-64.4694 55.2072 -6.58241
-59.8557 55.7525 -7.28308
-161.38 -20.0819 2.87713
-160.553 -19.8497 7.08347
-162.483 -16.678 9.47051
-85.9242 -35.8148 -37.5956
18.3879 42.6749 -41.6828
23.0391 42.4657 -41.6134
-110.614 -45.8451 -0.542927
-91.405 -32.4149 -39.0694
-130.121 16.9213 35.2252
-128.292 14.6973 36.9997
-130.202 11.3684 37.354
-139.492 -9.53792 -33.5685
-57.7487 38.4968 41.3487
-60.0838 40.8797 38.5602
-64.5271 39.2334 39.3825
-67.6293 37.0723 40.813
118.978 -40.6698 14.5924
117.98 -42.1928 10.7554
114.104 -43.5226 10.5744
-77.1418 -52.5775 10.3474
-108.2 -31.9278 -33.8725
125.777 0.477367 -40.7798
125.374 -3.42692 -40.7906
-104.997 -33.0049 -34.0736
-106.864 -37.6029 -28.0699
-67.2687 46.4236 -29.8473
-104.537 -35.953 -31.1369
-111.013 -28.698 35.6039
-114.85 -28.01 34.6493
-84.1764 -35.9193 37.978
-117.315 -30.4051 31.4736
35.1195 -33.3351 -48.3505
36.0596 -28.1774 -51.4475
-60.4042 35.6654 43.3738
37.4925 -30.9116 -49.723
-135.761 -34.2187 -13.1387
-134.457 -35.983 -9.58717
-130.862 -37.371 -10.3382
-126.319 -0.25878 -40.5764
-122.365 -0.601852 -42.0299
-119.442 1.58983 -43.0221
-150.218 -20.0197 20.8949
-150.088 -16.7788 23.6781
-153.562 -14.5273 22.4045
-156.602 -14.9808 19.3172
-151.195 -20.9303 -19.0589
9.55 -40.5397 -44.1063
14.1262 -41.4094 -43.1373
152.135 -0.635061 27.677
151.912 -4.48432 27.4702
-149.276 -19.5781 -22.1047
-135.229 5.29968 -36.512
-39.3659 30.5783 -49.7518
-37.9365 33.5068 -47.9698
-136.727 1.58927 -36.1773
-136.738 8.03494 -35.3042
43.2645 20.1387 54.4543
44.7729 25.7367 51.8865
-92.2504 -38.4292 -32.8836
-88.0616 -38.6981 -33.9567
75.6162 -46.499 27.163
-96.8075 -49.5236 -0.251072
71.5347 -47.0234 27.6102
59.1475 51.4265 -22.9569
54.6834 51.7583 -23.5582
45.8372 22.2398 53.3682
-95.4303 49.8497 0.266484
-92.1654 50.3478 -5.01561
-91.6234 50.7049 -1.12199
74.6841 -44.5844 -30.4856
77.3106 -45.5368 -28.1898
-155.387 -25.2139 2.8705
13.9799 8.30507 59.2208
-27.6352 -51.4387 29.3353
-27.3385 -49.4099 32.6674
11.0109 6.76092 59.4933
-71.1282 24.4966 48.7907
-6.94743 57.4757 17.0481
-3.02746 57.9174 15.635
10.0555 3.61008 59.7879
-119.149 -39.841 16.5726
-116.733 -39.6221 19.0215
-122.097 -34.9356 23.5462
-122.238 -38.2916 17.4479
-123.57 -36.2303 20.4445
2.66005 49.5201 33.8658
-79.4625 43.3092 30.8428
-12.5712 14.7883 57.9824
5.94119 50.6281 32.1322
-75.4721 46.6339 26.9802
-76.0777 44.831 29.6917
-43.1163 -41.7111 -40.4053
-46.7239 -40.6603 -40.9813
-8.97063 -56.8491 -18.9295
99.4535 42.3751 -24.3605
98.3262 40.6092 -27.6996
15.9878 -17.0673 57.2487
18.4221 -19.7483 56.2891
82.2424 31.2439 -42.3762
-47.1758 -37.5502 -43.7894
122.577 -39.0038 15.4669
-147.73 -29.9374 5.64879
-71.5732 -43.8416 32.4154
56.575 -55.6181 10.7133
58.2538 -56.053 6.52739
-72.8196 -45.9201 29.0199
-77.7355 -51.484 14.4774
-74.9097 -51.1194 17.3152
-44.9989 -46.6981 -34.2255
-42.8853 -44.6762 -37.1332
63.4562 37.6338 -41.1184
65.4733 39.9747 -38.4345
-152.126 -27.6218 1.95176
-119.937 -20.7197 37.5448
-125.695 -4.2641 40.5901
-19.5279 -10.203 -58.73
-22.9001 -7.9837 -58.9242
-124.114 -8.17476 40.5866
-150.572 -28.1319 5.74048
-158.586 -10.1818 -20.4298
-156.17 -8.82822 -23.1557
105.519 -46.2814 9.74161
101.722 -47.4206 9.19119
-117.203 43.5347 -4.79637
120.067 -11.1724 41.3554
118.172 -8.33109 42.6727
-124.03 41.2837 -3.50868
53.5091 -9.31549 56.2378
50.3336 -7.30821 56.8896
-120.076 42.7373 -2.8885
152.212 -26.8754 6.42567
151.232 -26.6679 9.4224
-68.7206 22.2006 -50.2889
-72.8074 21.5141 -49.8816
43.9196 57.6872 6.00325
-152.181 2.87214 27.5036
-149.103 0.365518 29.6331
-108.246 34.1174 31.6464
-118.037 36.0326 -24.4114
-26.2141 -26.4517 53.0677
-94.1331 -40.4381 -29.6637
-98.8375 -39.6343 -28.8644
145.917 -27.4309 15.5204
148.835 -26.0534 14.4656
-96.7984 29.2784 -39.9455
42.7261 -5.69831 -57.8276
-99.8495 27.0768 -40.5742
-110.272 38.2043 -25.5291
-113.784 38.1624 -23.6344
-82.0933 39.3305 35.0435
128.559 -25.5086 -30.4287
-79.0874 40.9861 33.9763
-119.559 33.6605 -26.7761
65.9683 -54.6741 8.82952
43.9605 -34.2302 -46.8156
47.9347 -34.484 -46.1471
86.4966 31.0931 -41.4399
-111.776 43.8006 12.3253
-110.509 43.0644 15.8223
86.2991 26.0051 -44.8548
88.3306 28.2268 -42.9888
48.7436 8.45952 -56.8995
-81.0142 -48.6352 20.7627
-77.2843 -48.1717 23.4147
-25.8193 21.9031 -55.1239
-152.05 -26.0637 9.50206
-128.459 20.8238 -33.8544
-38.1828 -33.5911 47.8868
-126.762 17.3807 -36.4788
-125.551 23.874 -33.1694
-142.791 -9.7752 -31.753
40.6353 1.24108 -58.2778
-143.022 -6.12933 -32.5294
-5.42089 7.04238 59.5551
76.8969 -37.5467 -38.2925
-112.865 18.571 41.1776
-106.988 -23.0789 -40.817
-103.707 -25.0945 -40.6638
82.9771 -34.363 -39.7021
80.7103 -36.7102 -38.1426
-149.469 -1.78001 -29.3547
38.6812 -25.2033 -52.741
42.0203 -24.5671 -52.7284
-143.273 4.71105 -32.6303
-145.998 -1.56001 -31.4325
-143.581 0.651407 -32.7975
-123.584 31.7366 -26.8882
72.6105 -50.541 -20.0035
16.4323 57.7688 -15.156
11.6352 57.5217 -16.5735
73.1233 -48.7126 -23.9264
76.4209 -47.5157 -25.0453
-145.266 -31.2205 -6.46618
-141.264 -33.0924 -7.86121
101.039 -40.7015 -26.3356
96.3944 -39.1782 -30.4548
-127.903 9.28933 38.8706
-129.191 6.12409 38.9765
96.9008 -40.9863 -27.7591
-51.8569 22.9351 52.3905
6.05475 2.44154 59.9129
166.388 -13.498 -5.33128
167.247 -10.8606 -7.58818
-47.6507 23.6995 52.5391
109.862 46.0653 -0.582299
116.372 44.0642 0.630902
113.562 44.908 -2.1005
104.561 -25.0156 -40.4442
100.523 -25.7449 -41.2322
-8.771 8.70407 59.2859
99.5588 -22.6445 -43.2867
-47.1582 42.9516 38.5084
-43.7576 46.8875 34.1636
-35.0767 47.5181 34.5166
-35.7108 49.6128 31.344
-157.381 -21.7137 9.80586
-155.283 -24.4151 7.20126
101.926 45.0143 -17.3734
97.8345 46.4873 -16.3437
39.3236 -58.3488 -2.47015
42.8079 -58.0931 -0.917395
86.6638 -45.4996 -24.704
89.5862 -43.5522 -26.8449
-124.012 -38.7998 14.5529
104.053 45.4463 -14.4608
-59.4744 50.4475 24.94
-72.9235 49.6121 22.0816
-67.7602 48.5829 26.0305
-63.4838 50.1951 24.2292
17.157 1.4852 59.6805
-96.7967 41.2761 -27.3714
-93.0406 41.9843 -27.8842
-40.2454 -34.194 -47.2491
-31.5862 17.9046 -56.1897
-27.8094 18.6083 -56.2054
147.133 9.11997 29.4368
147.433 12.832 27.8248
-38.1596 -37.1472 -45.1865
-39.3143 -39.9754 -42.5764
51.9809 -56.0021 11.5311
48.6902 -56.9224 8.34275
-115.006 43.058 11.2589
-155.981 9.82458 -22.9088
-139.247 10.8404 33.2967
-155.834 12.8141 -21.5123
-94.6609 47.4934 15.7273
-103.742 46.6907 -10.1179
-106.849 45.3213 -12.1763
-89.4731 47.6413 18.7144
-90.5685 48.4877 15.6436
54.369 -14.4595 55.0366
51.4906 -12.9123 55.7556
-149.785 -24.5052 -15.8992
-146.06 -26.3197 -17.1894
3.23565 15.2092 58.0293
0.73119 18.2318 57.1624
-56.969 47.6328 -30.5579
-60.7059 46.8393 -30.9016
47.6405 -0.53181 -57.6355
44.0109 -1.83409 -57.9612
-63.4382 47.8262 -28.635
-83.096 -52.2628 -4.82175
-157.402 -16.6245 -17.0425
-154.763 -20.0547 -16.2946
15.1833 -52.2233 29.0603
13.5933 -48.6762 34.7564
-111.204 -33.384 -31.1698
129.702 -37.8285 -10.4633
126.725 -39.3572 -9.21566
-145.141 -11.673 -29.7443
-13.0247 29.506 52.0445
-10.34 32.1027 50.5601
12.2604 -50.9134 31.455
-99.627 48.4691 5.96655
-95.3332 49.6825 4.35678
-135.698 -2.83135 36.5734
53.6326 13.3278 55.4095
-132.907 -0.12291 37.9132
-132.004 3.7629 38.1124
-56.6185 -7.84102 56.0898
-59.8313 -5.99598 55.9087
96.1411 31.067 38.7716
[...]
POINT_DATA 4978
VECTORS F double
-4.07893e-08 3.65047e-08 -2.65897e-08
7.34027e-08 4.26959e-08 8.19718e-09
7.92577e-08 4.10712e-08 8.33496e-09
9.16342e-08 3.66426e-08 1.1334e-08
8.98753e-08 3.59593e-08 9.13868e-09
-6.75174e-08 1.72616e-08 -1.54476e-08
-7.10979e-08 1.62704e-08 -1.35598e-08
1.14816e-07 2.74083e-08 1.34123e-08
1.09708e-07 2.98936e-08 1.56468e-08
1.21967e-09 5.37214e-08 -1.28027e-08
-1.54545e-08 4.10524e-08 5.252e-09
9.16323e-09 5.52958e-08 -1.04153e-08
-2.62039e-08 4.50774e-08 -2.53661e-08
-4.47608e-09 2.50902e-08 2.26058e-09
-1.05571e-08 2.0586e-08 6.1825e-10
-2.58799e-08 4.33427e-08 -2.56427e-08
1.30012e-07 2.44306e-08 1.89102e-08
1.35186e-07 2.27423e-08 1.9546e-08
-2.47096e-08 -2.87092e-09 1.54887e-09
7.39802e-08 3.35225e-08 1.96433e-09
8.03399e-08 4.59705e-08 1.78555e-08
8.14904e-08 5.00668e-08 2.23859e-08
7.4097e-08 3.48445e-08 8.57487e-10
4.03823e-10 5.91497e-08 -1.43689e-08
5.47708e-08 5.42159e-08 1.96857e-09
2.89798e-08 5.91806e-08 4.63647e-10
4.09008e-08 6.84183e-08 1.69951e-08
4.01406e-08 6.68994e-08 1.5929e-08
1.98127e-08 5.80755e-08 1.08309e-09
-3.87921e-08 2.14411e-08 6.26821e-09
-9.63398e-08 2.24034e-09 -4.39416e-09
-9.567e-08 2.74029e-09 -2.61492e-09
-4.49571e-08 -2.84119e-08 -2.86523e-09
-4.58911e-08 -2.81314e-08 -3.94069e-09
2.34973e-08 4.34736e-08 2.72794e-09
-6.61418e-08 -2.42318e-08 -2.46293e-09
-2.48098e-08 4.4559e-08 -1.92873e-08
-2.52671e-08 4.49524e-08 -1.77843e-08
9.58442e-08 4.67015e-08 3.87104e-08
8.46381e-08 2.66906e-08 2.08494e-09
1.13538e-07 2.08158e-08 8.42264e-09
1.1069e-07 2.20344e-08 6.27832e-09
8.23317e-08 2.63716e-08 3.56887e-09
4.77846e-08 -3.18946e-08 -2.38873e-09
5.41132e-09 5.9135e-08 -8.81193e-09
-2.09546e-09 5.42771e-08 -1.09927e-08
9.23429e-08 2.47077e-08 5.81364e-09
-4.83984e-08 2.77561e-08 -1.83065e-08
-4.77099e-08 2.61376e-08 -1.94586e-08
-8.5429e-08 -8.03496e-09 -3.40538e-09
-8.62782e-08 -7.23188e-09 -3.51745e-09
1.51024e-08 3.92253e-08 1.00479e-08
1.60988e-08 3.58798e-08 9.5858e-09
2.54773e-08 4.92246e-08 1.36064e-08
1.23989e-07 1.74313e-08 3.2678e-09
1.214e-07 1.75509e-08 5.88474e-09
9.48229e-08 2.49496e-08 3.60189e-09
-8.91508e-09 5.53836e-08 -2.13466e-08
-1.26414e-08 5.0715e-08 -2.19427e-08
9.51104e-09 5.66513e-08 -1.2137e-08
2.15204e-08 4.24888e-08 4.26322e-09
1.1514e-08 4.31686e-08 5.08972e-09
-3.33658e-08 2.76509e-08 6.2715e-09
-2.55519e-08 4.71377e-08 -2.47953e-08
4.99002e-08 4.32995e-08 -8.30283e-10
-2.8959e-08 4.47784e-08 -2.66485e-08
-7.34576e-08 -1.09403e-08 -9.31809e-10
-7.29185e-08 -1.1297e-08 -1.26213e-09
1.30867e-08 -3.56471e-08 7.26048e-09
8.19232e-09 -3.84915e-08 6.34526e-09
-8.36973e-08 -4.30466e-09 -4.86129e-09
-8.27883e-08 -5.11981e-09 -4.65418e-09
5.87359e-08 -2.547e-08 -1.07327e-09
5.44498e-08 -2.57008e-08 -2.85623e-09
-3.20434e-09 -4.80668e-08 4.58254e-09
-6.89076e-09 -5.01994e-08 2.71991e-09
6.44993e-08 4.57164e-08 -2.66813e-08
6.11142e-08 4.86817e-08 -2.48969e-08
-7.88852e-08 -8.10704e-09 1.9006e-10
-7.84108e-08 -8.70851e-09 2.3768e-10
-5.23419e-08 -2.74395e-08 -3.09351e-09
-8.47941e-08 -1.06108e-08 -1.44035e-09
-3.26518e-08 4.37937e-08 -2.71179e-08
1.00624e-07 3.82447e-08 2.25537e-08
9.73495e-08 3.9152e-08 2.06457e-08
-5.54568e-08 2.33176e-08 -2.11883e-08
-1.2808e-08 -1.34852e-08 -7.22363e-10
-5.62895e-08 2.38437e-08 -2.02278e-08
-4.60869e-08 -2.91407e-08 -4.37076e-09
1.13211e-07 2.53063e-08 1.07119e-08
1.17847e-07 2.32138e-08 1.07343e-08
1.15967e-07 2.3915e-08 8.86015e-09
-3.9475e-08 3.49584e-08 1.70807e-08
-3.3633e-08 3.48225e-08 1.56079e-08
-6.25705e-08 -2.21252e-08 -2.89863e-09
-5.88527e-08 -2.45362e-08 -4.26481e-09
-5.41382e-08 -2.37266e-08 -3.03844e-09
1.07765e-07 2.02492e-08 -8.60871e-09
-6.29725e-08 1.78313e-08 6.23386e-09
-5.83133e-08 1.85074e-08 7.98435e-09
7.43488e-08 4.1953e-08 3.82071e-09
7.73043e-08 3.97515e-08 5.35663e-09
1.11243e-07 1.83015e-08 -6.10731e-09
1.12865e-07 2.01572e-08 -1.01619e-08
1.29313e-07 1.96983e-08 1.01557e-08
1.31369e-07 1.87671e-08 1.14847e-08
-4.11775e-08 4.01033e-08 -2.85134e-09
-4.00716e-08 3.94575e-08 -6.24578e-10
-3.51499e-08 4.29973e-08 1.88981e-09
-3.98772e-08 3.94055e-08 -2.63812e-08
9.5779e-08 2.34697e-08 2.92011e-08
9.6048e-08 1.81503e-08 2.50323e-08
-6.08677e-08 1.80985e-08 -1.0048e-08
-3.3695e-08 4.31479e-08 -2.61477e-08
4.12367e-08 3.82715e-08 2.6418e-10
3.88498e-08 3.65641e-08 1.96753e-09
3.22972e-08 3.88408e-08 1.96149e-09
-4.55237e-09 5.40164e-08 -1.3032e-08
9.69305e-08 2.2624e-08 -4.48991e-09
9.76212e-08 2.32201e-08 -5.99428e-09
9.47695e-08 2.2743e-08 -3.64689e-09
8.89878e-08 2.45045e-08 -4.20579e-09
-6.56948e-08 -2.44154e-08 -2.47079e-09
-6.84407e-08 -2.40158e-08 -2.30067e-09
-6.92764e-08 -2.2824e-08 -2.4217e-09
-7.52304e-08 1.3868e-08 1.80289e-09
-3.3491e-08 4.23336e-08 -2.68059e-08
-1.77943e-09 -3.31728e-08 -1.06025e-09
-9.61772e-09 -3.28531e-08 -8.59015e-10
-3.31425e-08 4.03757e-08 -2.66063e-08
-4.07407e-08 3.36539e-08 -2.60947e-08
1.10935e-07 3.20426e-08 1.9229e-08
-4.04694e-08 3.73032e-08 -2.64391e-08
-3.14308e-08 2.9073e-08 1.14359e-08
-3.2513e-08 2.85697e-08 9.90164e-09
-4.71304e-08 3.16083e-08 1.71059e-08
-3.52162e-08 2.72449e-08 1.02497e-08
-6.06397e-08 -1.82021e-09 -4.13743e-09
-5.36512e-08 -1.63046e-09 -3.71075e-09
8.80014e-08 2.60906e-08 -6.4498e-09
-5.69872e-08 -3.681e-09 -2.97224e-09
-4.5718e-08 2.88597e-08 -1.73283e-08
-4.94345e-08 2.66042e-08 -1.49734e-08
-4.8661e-08 2.54775e-08 -1.66883e-08
1.61796e-08 5.28818e-08 -6.50377e-09
1.77411e-08 5.42103e-08 -7.09977e-09
2.0798e-08 5.48894e-08 -5.04067e-09
-3.16009e-08 3.56518e-08 6.34503e-09
-2.46737e-08 3.77481e-08 7.60184e-09
-2.43525e-08 4.20011e-08 6.79928e-09
-2.6507e-08 4.13706e-08 5.77563e-09
-3.10364e-08 4.20424e-08 -1.60274e-08
-7.27745e-08 9.16374e-09 -1.03519e-08
-7.28282e-08 6.42073e-09 -9.08334e-09
-6.0475e-09 -4.35157e-08 3.07128e-09
-1.46704e-08 -4.35636e-08 2.82089e-09
-2.75123e-08 4.3916e-08 -1.61501e-08
2.70362e-08 5.2713e-08 -4.60782e-09
8.18118e-08 5.43598e-08 2.54854e-08
9.17845e-08 5.13393e-08 2.69739e-08
1.81498e-08 5.45496e-08 -6.00145e-09
3.09789e-08 5.5264e-08 -2.11187e-09
2.08395e-08 -8.88098e-09 1.2574e-09
3.3221e-08 -9.46189e-09 1.18371e-09
-4.49983e-08 3.61191e-08 -2.67556e-08
-4.38886e-08 3.70608e-08 -2.83013e-08
-7.42684e-08 -1.61044e-08 -2.25695e-09
-6.4457e-08 1.5469e-08 -8.5757e-09
-7.50481e-08 -1.58135e-08 -3.12753e-09
1.29191e-07 -2.25806e-08 -9.83313e-09
1.28672e-07 -1.90266e-08 -5.23654e-09
2.44481e-08 -1.19475e-08 2.40805e-09
1.08752e-07 2.54465e-08 7.78861e-09
1.10865e-07 2.56826e-08 8.39843e-09
1.11159e-07 2.47997e-08 9.43195e-09
-6.99771e-08 -1.31676e-08 -1.73046e-09
-6.99985e-08 -1.3805e-08 -1.20222e-09
-4.55462e-08 3.3968e-08 -3.47774e-09
-6.23311e-10 2.43666e-08 -3.39906e-09
-8.43359e-08 1.1279e-08 1.00508e-08
-8.11322e-08 1.20866e-08 9.96875e-09
-1.80228e-09 2.53973e-08 -2.84535e-09
6.06385e-08 3.47374e-08 -6.61813e-09
1.5912e-07 1.79421e-09 1.88993e-09
1.64839e-07 4.62282e-10 2.19552e-09
-7.53494e-09 2.65567e-08 -1.4484e-09
-5.02734e-08 1.91572e-08 1.80442e-09
-5.1198e-08 2.08843e-08 5.03615e-09
-4.47488e-08 2.27317e-08 5.31919e-09
-5.07989e-08 2.06686e-08 1.78909e-09
-4.66315e-08 2.19779e-08 4.4421e-09
1.52692e-07 1.51253e-08 -2.35852e-08
9.76405e-08 2.35471e-08 -2.26724e-09
2.62394e-08 5.20066e-08 -1.25676e-08
1.52315e-07 1.60498e-08 -2.87362e-08
1.06571e-07 2.17866e-08 -1.16026e-09
1.00127e-07 2.17567e-08 -1.44138e-09
-6.43517e-08 3.12121e-08 -2.38138e-08
-6.40119e-08 3.46775e-08 -2.5471e-08
-9.19234e-08 5.39731e-09 -1.08762e-08
6.71447e-08 -2.42954e-08 -8.70183e-09
6.16565e-08 -2.36612e-08 -7.89398e-09
-4.14604e-08 9.86414e-09 4.3583e-09
-4.52609e-08 5.79259e-09 3.84579e-09
4.77673e-08 -2.8358e-08 -9.55877e-09
-5.60579e-08 3.78172e-08 -2.50353e-08
-6.45901e-08 -2.58939e-08 -2.63008e-09
-4.64603e-08 2.75077e-08 -2.96907e-09
-6.20063e-08 2.2398e-08 1.35317e-08
-8.65696e-08 -1.10776e-08 -1.54143e-09
-8.68633e-08 -1.13069e-08 -2.18917e-09
-6.48841e-08 2.11591e-08 1.35487e-08
-7.16439e-08 1.42961e-08 3.74348e-09
-7.33656e-08 1.55401e-08 7.02107e-09
-7.13588e-08 2.64788e-08 -2.46422e-08
-7.13368e-08 2.86986e-08 -2.44419e-08
6.60792e-08 -2.33663e-08 -8.90147e-09
7.3969e-08 -2.61095e-08 -1.17293e-08
-4.63438e-08 3.09164e-08 -4.6874e-09
-1.99541e-08 3.21735e-08 9.95163e-09
5.9465e-09 4.05017e-08 6.50927e-09
-2.31903e-08 4.99842e-08 -7.73962e-09
-1.93041e-08 5.69593e-08 -6.79904e-09
6.71655e-10 3.72883e-08 7.76189e-09
-4.68771e-08 3.02041e-08 -2.51445e-09
-1.41932e-08 5.36011e-08 -1.32256e-08
-1.04931e-08 5.42894e-08 -1.20342e-08
-7.34519e-08 -2.10144e-08 -2.43331e-09
-7.43246e-08 -2.00042e-08 -2.50317e-09
9.51989e-08 3.23459e-08 8.79465e-09
-2.25544e-08 -3.51916e-08 -1.4905e-09
-1.89833e-08 -3.29681e-08 -5.07541e-13
9.06048e-08 3.39258e-08 7.0633e-09
-2.65905e-08 -1.69241e-08 2.94105e-10
-2.52369e-08 -1.41085e-08 9.21203e-10
9.26767e-08 3.23586e-08 7.10462e-09
-5.21539e-08 -3.66986e-08 -2.24259e-09
-5.17337e-08 -3.65669e-08 -1.83812e-09
6.03644e-08 5.37935e-08 1.36489e-08
5.94961e-08 5.09973e-08 1.13637e-08
3.38078e-07 -2.63818e-08 -8.96853e-08
1.29329e-08 4.83523e-08 3.71162e-09
1.02839e-08 4.49405e-08 5.78068e-09
7.4604e-08 2.81145e-08 9.31463e-10
8.2916e-08 3.94998e-08 9.22004e-09
-4.82275e-08 3.15317e-08 1.28005e-08
-4.695e-08 3.31717e-08 -2.69802e-08
-4.77411e-08 3.3337e-08 -2.5762e-08
-5.08464e-08 -3.51927e-08 -3.67519e-09
-4.95654e-08 -3.60286e-08 -2.45539e-09
7.17846e-08 4.53766e-08 1.19627e-08
-2.11167e-08 -7.59193e-09 -1.16207e-09
6.76708e-08 4.66632e-08 1.07523e-08
8.78671e-08 3.82067e-08 1.07107e-08
8.56781e-08 3.71267e-08 9.4492e-09
8.89246e-08 2.3904e-08 -1.32485e-09
-4.18016e-08 -2.77732e-08 1.66084e-09
9.21521e-08 2.27211e-08 -1.14774e-09
7.67464e-08 4.11473e-08 9.773e-09
-8.46556e-08 -1.29e-08 -2.44559e-09
-6.05934e-08 -6.79295e-09 -1.9991e-09
-5.96637e-08 -6.85421e-09 -2.46551e-09
4.79986e-08 -2.70381e-08 -8.02173e-09
9.40618e-08 2.78921e-08 5.31326e-09
9.24635e-08 2.66066e-08 6.64678e-09
3.74711e-08 -2.84997e-08 -7.69698e-09
4.23346e-08 -3.04366e-08 -9.33552e-09
3.49031e-09 -1.4332e-08 -1.76478e-09
-6.70782e-08 1.7241e-08 8.34286e-09
-6.75643e-08 1.85211e-08 1.08019e-08
6.12513e-08 6.3917e-08 2.18846e-08
-4.37642e-08 3.14554e-08 5.45032e-10
5.35912e-08 5.06548e-08 6.26226e-09
-5.51958e-08 3.16087e-08 1.67844e-08
4.82272e-08 4.90202e-08 2.83902e-09
5.98746e-08 4.73582e-08 6.34034e-09
-6.10278e-09 5.19631e-08 -1.26371e-08
-1.08341e-08 -6.10147e-09 -1.05484e-09
1.93788e-09 5.38399e-08 -1.11879e-08
7.90179e-09 4.14038e-08 -4.8079e-09
-5.94994e-08 -1.50747e-08 1.53107e-10
4.47814e-08 3.64651e-08 -1.41869e-09
-1.76949e-08 5.00545e-08 -2.26238e-08
-1.79642e-08 4.75565e-08 -2.37391e-08
-5.43156e-08 -1.70056e-08 8.2095e-10
-5.87458e-08 -1.48787e-08 -8.98574e-10
7.906e-09 5.39431e-08 -8.1995e-09
-4.92787e-08 -4.1793e-09 -2.42758e-09
-4.84623e-08 -4.98253e-09 -2.40671e-09
2.41745e-08 5.51585e-08 -5.03147e-09
9.50685e-09 5.48298e-08 -8.12733e-09
1.35662e-08 5.45728e-08 -6.18711e-09
7.47403e-08 4.31169e-08 8.8354e-09
-7.83546e-08 -1.29859e-08 -2.01011e-09
1.97222e-07 -2.0316e-09 1.84365e-08
1.91121e-07 1.16012e-09 2.04533e-08
-7.4819e-08 -1.27564e-08 -2.02278e-09
-7.37236e-08 -1.36468e-08 -1.64967e-09
-4.8126e-08 2.97356e-08 -1.12071e-08
-4.74993e-08 2.8021e-08 -1.34596e-08
-6.29423e-08 -1.84149e-08 -1.10397e-09
-5.97349e-08 -1.74106e-08 -7.49553e-10
3.07933e-08 3.70028e-08 3.56188e-09
2.46035e-08 3.82765e-08 3.96984e-09
-6.38984e-08 -1.84706e-08 -3.61459e-11
5.93684e-08 3.56923e-08 -8.43079e-09
-8.49408e-09 2.73241e-08 -1.00839e-09
-3.18565e-08 -4.82971e-08 5.58024e-10
-2.5511e-08 -4.89855e-08 1.27238e-09
6.03745e-08 3.89777e-08 -1.08784e-08
7.12705e-08 -2.07647e-08 3.53131e-09
6.77956e-08 -2.19976e-08 5.42548e-09
7.06875e-08 -2.18084e-08 1.61874e-09
-3.96766e-08 -2.08233e-08 3.21572e-10
-4.04121e-08 -2.25009e-08 1.98735e-09
1.03465e-08 4.71412e-08 -6.73363e-09
-3.55541e-08 -2.10962e-08 1.02469e-09
1.05938e-07 2.10533e-08 -7.59967e-09
1.14126e-07 1.84972e-08 -7.49045e-09
1.20236e-07 1.52597e-08 -6.04865e-09
1.22278e-07 1.54993e-08 -7.47725e-09
-4.04695e-08 3.65628e-08 1.44442e-09
-4.35681e-08 3.3561e-08 -1.23148e-09
7.34331e-08 -2.30432e-08 -6.96163e-09
7.40396e-08 -2.10807e-08 -5.701e-09
-9.11015e-08 -7.3902e-09 -2.98598e-09
-9.04453e-08 -8.11364e-09 -2.90136e-09
-7.03573e-08 -1.53458e-08 -1.95361e-09
-6.73321e-08 -1.68455e-08 -1.79662e-10
-4.96405e-08 1.9493e-08 1.83267e-10
7.17376e-08 -2.17456e-08 -5.14515e-09
1.17403e-07 1.88962e-08 -3.94643e-09
1.10746e-07 1.99141e-08 3.35044e-11
1.12007e-07 2.02739e-08 -2.14323e-09
1.15438e-07 1.82362e-08 -7.50017e-10
-1.25907e-08 1.69178e-08 2.21138e-11
9.49943e-08 3.48719e-08 1.14589e-08
9.67954e-08 3.61753e-08 1.49271e-08
-5.41888e-08 4.0828e-08 -2.38964e-08
5.17084e-08 6.65239e-08 1.7639e-08
5.19578e-08 6.89707e-08 1.96873e-08
9.804e-09 -4.05116e-08 6.55191e-09
1.84129e-08 -4.04597e-08 6.71468e-09
-6.09793e-08 3.54393e-08 -2.28296e-08
-6.45528e-08 3.36963e-08 -2.43404e-08
-8.73688e-08 -1.02914e-08 -1.76369e-09
-8.86455e-08 -9.50316e-09 -1.50174e-09
9.21028e-08 2.84432e-08 6.4018e-09
3.06388e-08 5.74223e-08 -9.14062e-10
3.16973e-08 4.00766e-08 3.18101e-09
3.7789e-08 5.72382e-08 5.81593e-10
1.03796e-07 2.33122e-08 6.0861e-09
1.0226e-07 2.96468e-08 8.44515e-09
9.88459e-08 3.12686e-08 1.01925e-08
1.04295e-07 2.20186e-08 4.99323e-09
1.04942e-07 2.25707e-08 4.4229e-09
-3.3563e-08 -1.5664e-08 -5.61946e-11
-3.32005e-08 -1.39019e-08 5.3418e-10
-3.79488e-08 3.81256e-08 -1.49933e-08
-3.75794e-08 3.68694e-08 -1.73601e-08
1.91184e-08 3.93761e-08 -1.04508e-08
2.89168e-08 4.70049e-08 -1.50373e-08
1.17101e-07 2.99522e-08 1.99615e-08
1.14847e-07 2.96896e-08 1.73807e-08
-1.19209e-08 -1.13452e-08 -1.10168e-09
-1.32525e-08 -9.55498e-09 -9.29635e-10
1.14065e-07 2.95389e-08 1.83984e-08
-7.29296e-08 1.50373e-08 -9.11855e-09
-2.80731e-08 4.68675e-08 -1.39752e-08
-3.19625e-08 4.13477e-08 -1.37235e-08
-8.58635e-08 -1.60837e-09 2.60193e-09
-8.18161e-08 -1.98215e-10 3.63978e-09
-3.38303e-08 3.86896e-08 -2.66616e-08
-6.28708e-08 -2.63506e-08 -1.44714e-10
-6.44801e-08 -2.51454e-08 -1.16387e-09
-9.37085e-09 5.04217e-08 -1.41897e-08
7.40022e-08 4.54909e-08 -2.35231e-08
7.96922e-08 4.10856e-08 -2.40917e-08
-8.49413e-08 -8.765e-11 3.91137e-09
1.05428e-07 2.57202e-08 6.58291e-09
1.08373e-07 2.46905e-08 8.75948e-09
6.17996e-09 4.20038e-08 6.05895e-09
9.48693e-09 -1.781e-08 3.1597e-09
1.17508e-08 3.97842e-08 5.17213e-09
2.15509e-08 3.90056e-08 5.28712e-09
1.75371e-09 4.63109e-08 6.69073e-09
1.86394e-09 4.80535e-08 5.39774e-09
4.24629e-08 -3.05087e-08 1.15553e-08
3.87179e-08 -3.35945e-08 1.21348e-08
3.88149e-08 -3.16835e-08 1.18923e-08
-4.99894e-08 3.09236e-08 -2.60849e-08
-4.90947e-08 2.7751e-08 -2.38541e-08
-4.83422e-08 3.11365e-08 -2.56006e-08
-5.18237e-09 3.58874e-08 8.10932e-09
-3.91541e-09 3.88932e-08 9.10269e-09
-4.49594e-08 -4.4278e-09 1.98011e-09
-3.99121e-08 -7.37023e-09 1.10869e-09
2.87157e-09 3.77035e-08 7.66941e-09
-2.48044e-09 -4.03917e-08 2.6546e-09
-2.34262e-10 -4.11636e-08 4.16241e-09
3.58049e-08 5.14514e-08 -7.70178e-09
-2.31928e-09 -4.03814e-08 4.06239e-09
4.56217e-09 -4.60905e-08 -2.01701e-09
1.39489e-10 -4.90457e-08 -1.51768e-10
-3.93158e-08 4.18272e-08 -2.81945e-08
8.13068e-08 2.53082e-08 5.01429e-10
-6.19088e-09 6.0101e-08 -1.79836e-08
-5.77569e-09 5.47442e-08 -1.82316e-08
3.65244e-10 5.9225e-08 -1.62671e-08
2.45024e-08 -4.08491e-08 -3.80818e-09
2.41406e-08 -4.16531e-08 -4.27984e-09
2.65391e-08 -3.87099e-08 -5.15933e-09
-7.97052e-08 -1.21461e-08 -2.59907e-09
7.38251e-09 3.64201e-08 6.21069e-09
1.27042e-08 3.94063e-08 4.77482e-09
1.18577e-07 2.83533e-08 1.91834e-08
2.21958e-08 3.93669e-08 2.36203e-09
1.96019e-08 3.8074e-08 4.02175e-09
1.19029e-07 2.66493e-08 -3.99778e-08
1.06955e-07 1.95106e-08 -2.92525e-08
-1.37498e-08 1.86528e-08 1.6327e-10
1.04339e-07 2.08397e-08 -3.3557e-08
-2.67166e-08 3.75055e-08 1.56091e-08
-2.59238e-08 3.78713e-08 1.64987e-08
3.03548e-08 3.62907e-08 1.83364e-09
-1.53791e-08 5.87573e-08 -7.69371e-09
-5.35091e-08 2.05475e-08 -4.34358e-09
-5.28174e-08 1.90871e-08 -3.71086e-09
2.65031e-08 -2.64242e-08 -5.91541e-09
1.16654e-07 2.7115e-08 1.39197e-08
1.1912e-07 2.55197e-08 1.3722e-08
-7.54504e-09 6.00955e-08 -7.59351e-09
1.37017e-07 1.61224e-08 9.14895e-09
6.59566e-08 5.14366e-08 1.51983e-08
7.27444e-08 5.08143e-08 1.74456e-08
1.34739e-07 1.72705e-08 9.21632e-09
3.69495e-08 -2.9326e-08 -7.43308e-09
-8.04493e-08 -9.41107e-09 -2.87382e-09
-8.12439e-08 -8.90917e-09 -2.45849e-09
-9.1354e-08 -4.40383e-09 1.69857e-10
-8.00952e-08 -1.00036e-08 -2.54133e-09
8.8613e-08 3.96888e-08 1.74878e-08
-4.69434e-08 2.71495e-08 -3.8581e-10
5.34645e-08 5.00642e-08 -1.89404e-08
4.86073e-08 5.24812e-08 -1.71545e-08
1.00861e-07 3.5587e-08 1.86699e-08
1.01746e-07 3.83143e-08 2.37734e-08
8.17601e-08 3.57656e-08 3.72838e-09
7.95468e-08 3.76653e-08 3.23627e-09
9.58565e-08 3.84121e-08 1.95587e-08
1.28854e-07 2.13653e-08 1.34088e-08
1.26721e-07 2.23989e-08 1.26552e-08
1.32375e-07 2.242e-08 1.61314e-08
-9.49067e-08 5.07271e-09 -8.76564e-09
-9.58661e-08 3.06006e-09 -6.91044e-09
-9.43079e-08 4.30783e-09 -8.87431e-09
7.47935e-08 -2.0445e-08 4.94364e-09
1.06839e-07 2.18544e-08 -5.90991e-09
1.04787e-07 2.02514e-08 -1.78351e-09
1.01541e-07 2.16818e-08 -2.20304e-09
-5.25295e-08 2.45173e-08 1.47014e-08
6.60436e-08 3.29445e-08 1.90744e-09
6.74843e-08 3.49174e-08 -5.89676e-11
1.16732e-07 2.6807e-08 1.49937e-08
1.20758e-07 2.45311e-08 1.21738e-08
1.23435e-07 1.52467e-08 -4.01591e-09
-7.55435e-08 -1.7933e-08 -1.37561e-09
-7.78006e-08 -1.76507e-08 -2.05014e-09
-7.91928e-08 -1.61621e-08 -2.17496e-09
-7.8624e-08 -1.6682e-08 -2.036e-09
1.25155e-07 1.54484e-08 -5.9676e-09
-4.39555e-08 2.64389e-08 3.47888e-09
-3.59487e-08 3.11442e-08 7.26209e-09
-3.66394e-08 2.83121e-08 6.66723e-09
-4.14214e-08 2.69192e-08 4.62896e-09
5.41125e-09 5.50565e-08 -1.25384e-08
5.48209e-09 5.6356e-08 -1.09824e-08
6.58742e-08 4.7003e-08 5.48234e-09
6.30072e-08 4.90433e-08 3.41009e-09
-6.47203e-08 -1.07771e-08 -1.39616e-09
-6.80959e-08 -1.19464e-08 -3.6563e-10
1.49964e-07 5.78294e-09 -1.55657e-09
1.46929e-07 6.92726e-09 -1.0174e-09
6.99637e-08 2.70234e-08 -8.9488e-11
6.68284e-08 2.92467e-08 -4.16838e-10
-4.04214e-08 3.03548e-08 4.7823e-09
-4.44583e-08 2.73494e-08 1.40971e-09
-3.48211e-08 2.81474e-08 -6.20385e-09
1.37385e-07 2.07947e-08 1.75859e-08
1.4118e-07 1.81992e-08 1.46504e-08
1.4315e-07 1.7054e-08 1.50757e-08
1.4544e-07 1.7368e-08 1.62782e-08
3.24214e-08 3.73266e-08 1.86212e-09
-8.76515e-08 -9.12955e-09 -1.20038e-09
-8.69922e-08 -9.90473e-09 -9.59526e-10
3.83108e-08 3.50341e-08 2.07211e-09
3.70276e-08 5.33278e-08 -1.85451e-09
2.8985e-08 5.35121e-08 -3.47043e-09
-1.93011e-08 4.58052e-08 -1.60142e-08
-1.53954e-08 5.0693e-08 -1.48413e-08
-1.71621e-08 4.95048e-08 -1.30765e-08
-3.1212e-08 3.99991e-08 -2.4434e-08
-3.01088e-08 4.30175e-08 -2.73837e-08
-2.41405e-08 4.3359e-08 -2.4438e-08
-2.83489e-09 5.26744e-08 -1.56996e-08
-7.53154e-09 4.91113e-08 -1.62641e-08
-5.4853e-08 -2.2687e-08 4.94859e-10
-5.58726e-08 -2.29518e-08 1.60243e-09
-5.04926e-08 -8.25511e-09 -1.5127e-09
-5.08943e-08 -1.00551e-08 -7.5634e-10
-4.39154e-09 5.1543e-08 -1.42158e-08
8.34576e-08 5.02035e-08 2.5442e-08
8.43958e-08 5.14061e-08 2.44259e-08
8.36385e-08 4.93936e-08 2.15178e-08
5.67932e-08 5.15687e-08 3.12576e-09
4.71719e-08 5.46435e-08 1.63589e-09
5.18518e-08 5.48818e-08 3.02909e-09
-2.5161e-08 5.11669e-08 -1.0487e-08
-2.38937e-08 5.32861e-08 -7.81577e-09
-8.35107e-09 -5.30036e-08 2.44038e-09
-1.3916e-09 5.43263e-08 -1.70036e-08
-1.47305e-09 5.59695e-08 -1.50547e-08
-3.48997e-09 -5.12742e-08 3.95473e-09
-1.62344e-08 -5.11993e-08 1.76696e-09
8.30704e-08 2.63472e-08 -1.79822e-09
-8.87811e-09 -1.72659e-08 1.7368e-09
-4.01705e-08 3.51772e-08 -1.83958e-08
-3.89666e-08 3.45292e-08 -2.05622e-08
-4.47644e-08 3.14448e-08 -1.89517e-08
7.80676e-08 2.69024e-08 8.0849e-11
1.13247e-07 2.6873e-08 1.33835e-08
-6.65053e-08 2.40657e-11 -5.35503e-09
1.2037e-07 2.40381e-08 1.12127e-08
1.18066e-07 2.55131e-08 1.24429e-08
3.70896e-08 -7.4083e-09 -9.96781e-11
4.07296e-08 -1.22467e-08 -2.16106e-09
-3.65201e-08 3.51337e-08 -2.25617e-08
1.09991e-07 1.93404e-08 1.12762e-09
4.87927e-08 5.09597e-08 5.53086e-09
5.16532e-08 5.08745e-08 7.26537e-09