# vtk DataFile Version 2.0
S, Created by Mohamad Ibrahim Cheikh
ASCII
DATASET UNSTRUCTURED_GRID
POINTS 4978 double
-112.256 -35.2613 -28.5287
-126.085 32.1882 -24.8526
-124.594 34.8204 -22.069
-98.7193 40.0084 -28.394
-102.373 39.3412 -27.7347
-87.3367 -50.5122 -10.709
-86.8083 -51.2796 -6.91622
-75.0281 49.8947 -20.5268
-78.0724 48.305 -22.8122
-119.611 -8.87361 -42.0681
-20.2893 -7.81261 59.0641
-119.303 -4.81718 -42.8283
-110.905 -27.5709 -36.524
11.919 6.02857 -59.5505
13.677 2.98986 -59.7341
-107.903 -28.7482 -36.7168
-42.9587 51.1367 -27.5518
-41.5703 52.9911 -24.091
35.3402 -6.10699 58.3935
-128.838 34.4741 19.477
-60.6825 31.9201 -46.155
-57.1858 33.0228 -45.9253
-131.502 34.6345 16.833
-77.9087 -11.7043 -52.1527
-158.397 20.846 -9.68494
-166.339 10.8036 9.79267
-23.0802 16.9768 -56.9787
-26.5219 16.5974 -56.907
-166.426 7.60197 12.3001
-2.24372 -16.8143 57.5905
-12.9805 -59.8261 0.464082
-16.0533 -59.6604 3.0149
112.731 -26.1061 36.9139
108.987 -27.5358 37.2501
-141.079 7.93415 33.1719
114.724 -40.8469 17.8946
-139.894 -20.7752 -27.7929
-143.288 -19.5723 -26.5204
0.773632 39.0729 -45.5327
-104.469 39.371 26.717
-81.2277 52.0492 9.11699
-85.4732 50.9244 10.5972
-108.781 39.0756 24.9879
148.848 27.5266 -11.395
-156.81 -0.968719 -24.2628
-155.001 -5.00042 -25.1728
-103.372 43.7553 19.4232
-129.674 -36.5024 -14.4544
-125.692 -38.1534 -14.4971
46.6961 -54.4602 -19.1608
42.4958 -55.1609 -18.3353
3.24601 15.3598 -57.9895
7.24038 15.6793 -57.8597
-4.43037 17.0114 -57.517
-62.8907 54.0341 14.0033
-66.3923 53.9385 12.2877
-99.3698 44.291 20.7225
-91.6889 -19.0112 -47.0037
-89.5395 -21.8785 -46.2579
-97.4488 -7.59557 -48.7823
-144.099 6.40246 31.8886
-140.164 1.16757 34.5464
-5.4377 -13.5001 58.4305
-97.0798 -27.2648 -41.2652
-144.589 21.616 23.9439
-99.3652 -29.9657 -38.6431
58.5818 -46.5115 -31.8832
62.1736 -46.7386 -30.6962
109.085 13.3766 44.3198
110.665 9.68498 44.7982
33.3796 -52.4794 -26.6365
37.4535 -51.6502 -27.5776
132.248 37.077 -9.17158
133.244 35.4033 -13.1549
162.966 -0.277143 18.6689
164.933 -2.6515 16.2051
2.14594 30.8139 51.4776
-0.735097 28.2913 52.9106
39.8775 -48.2321 32.8478
43.3085 -48.2545 32.2781
114.258 -30.915 32.3421
51.4345 -54.2026 18.3901
-87.7532 -32.0818 -40.3484
-52.5961 41.3713 -39.3668
-56.8707 39.7275 -40.3208
-104.993 -44.5511 -16.2978
51.1093 -3.10076 -57.189
-108.733 -43.741 -15.4695
115.843 -28.1192 34.1525
-86.4342 51.4215 -6.41859
-78.6744 53.0134 -5.63901
-82.6701 52.3353 -4.93093
-81.5001 -31.3029 42.5081
-80.1851 -28.7638 44.5588
96.9141 -38.3067 31.3484
100.065 -35.7582 33.0984
99.3122 -32.9431 36.1562
-37.7366 42.9255 39.7876
-96.5487 -46.7957 16.3996
-96.6928 -45.3086 20.0626
-144.152 32.3868 -2.66589
-139.753 34.6038 -3.38575
-42.0344 45.1007 36.737
-37.6454 45.7586 36.5055
-62.5252 55.4959 -6.44865
-57.8799 56.0269 -7.13056
-161.98 -19.4869 2.8437
-161.135 -19.263 7.08511
-162.991 -16.0368 9.50874
-86.4575 -35.2485 -37.9792
19.9119 43.0656 -41.1924
24.5664 42.7856 -41.1766
-111.471 -45.5884 -0.675692
-91.8491 -31.7962 -39.4485
-129.486 17.4967 35.2304
-127.693 15.2475 37.0308
-129.699 11.9519 37.3861
-139.537 -8.75288 -33.7588
-56.2718 38.8324 41.2842
-58.6001 41.2226 38.4745
-63.0905 39.5723 39.3284
-66.2781 37.4345 40.7537
117.988 -41.0301 14.5678
116.948 -42.5483 10.7343
113.06 -43.8604 10.5516
-78.2098 -52.3746 10.3944
-108.651 -31.3237 -34.2576
125.745 -0.036647 -40.7948
125.223 -3.93416 -40.8017
-105.441 -32.4288 -34.4564
-107.423 -37.1232 -28.4445
-65.5989 46.8827 -29.5835
-105.089 -35.4212 -31.5168
-111.436 -28.267 35.7867
-115.289 -27.5876 34.8091
-84.8192 -35.4415 38.2509
-117.798 -30.0027 31.6387
34.222 -33.361 -48.4114
35.2676 -28.1992 -51.5027
-59.0566 36.0507 43.2824
36.6479 -30.9647 -49.7671
-136.413 -33.804 -13.3837
-135.161 -35.6017 -9.79675
-131.553 -37.0068 -10.5718
-126.055 0.507217 -40.6742
-122.078 0.180786 -42.136
-119.107 2.38258 -43.099
-150.666 -19.4896 21.001
-150.434 -16.2148 23.8015
-153.904 -13.8975 22.5168
-156.978 -14.3606 19.4141
-151.639 -20.3164 -19.2906
8.4789 -40.3995 -44.2615
13.0532 -41.3127 -43.2713
152.042 -1.28403 27.7173
151.688 -5.13168 27.5086
-149.665 -18.937 -22.3399
-134.808 6.06605 -36.5829
-38.0796 31.3452 -49.3959
-36.508 34.2313 -47.5925
-136.437 2.38348 -36.2674
-136.258 8.83994 -35.3389
43.6067 20.0519 54.4529
45.3053 25.6376 51.8789
-92.8631 -37.912 -33.2705
-88.6573 -38.1648 -34.368
74.5067 -46.7267 27.1477
-97.7144 -49.3044 -0.361106
70.4137 -47.246 27.5828
61.1379 51.0698 -23.1142
56.6655 51.466 -23.6251
46.2323 22.1061 53.3821
-93.7966 50.2273 0.368835
-90.4997 50.7271 -4.90572
-89.9534 51.0723 -0.996409
73.6345 -44.7858 -30.503
76.2593 -45.7482 -28.1982
-156.047 -24.7147 2.82882
14.0223 8.74467 59.1562
-28.861 -51.2526 29.516
-28.5153 -49.21 32.8455
11.0394 7.20948 59.4399
-70.1796 25.0102 48.6982
-4.53446 57.4989 17.0691
-0.523358 57.9198 15.6609
9.99811 4.0775 59.759
-119.856 -39.5624 16.6165
-117.45 -39.318 19.1121
-122.722 -34.6019 23.6407
-122.954 -37.9907 17.4903
-124.225 -35.9089 20.5254
4.98672 49.7402 33.5092
-77.9878 43.6646 30.8025
-12.0903 15.5989 57.7822
8.27553 50.8544 31.7088
-73.8638 46.9621 26.9559
-74.5655 45.1598 29.663
-44.0297 -41.2466 -40.76
-47.6315 -40.143 -41.3616
-10.3255 -56.7703 -19.081
100.473 41.9946 -24.5069
99.2616 40.2382 -27.8322
15.4013 -16.8679 57.3274
17.7733 -19.6137 56.3616
82.9662 30.8043 -42.5251
-47.9602 -36.987 -44.1629
121.603 -39.386 15.4394
-148.398 -29.5357 5.61718
-72.4388 -43.5004 32.6388
55.2825 -55.7775 10.7107
56.9552 -56.2176 6.51468
-73.7295 -45.5989 29.2442
-78.7489 -51.2735 14.5537
-75.9496 -50.8881 17.4414
-46.0188 -46.3049 -34.5917
-43.9074 -44.2483 -37.4975
64.458 37.2742 -41.2549
66.5942 39.5715 -38.6155
-152.797 -27.1687 1.89282
-120.196 -20.2433 37.7028
-125.577 -3.66066 40.6939
-19.8205 -9.44248 -58.8451
-23.131 -7.1169 -59.0241
-124.074 -7.6187 40.7097
-151.248 -27.6896 5.71449
-158.78 -9.3929 -20.6221
-156.308 -8.03022 -23.3314
104.414 -46.5917 9.72061
100.604 -47.716 9.16903
-115.774 44.0132 -4.67821
119.733 -11.6868 41.3318
117.893 -8.8114 42.6705
-122.67 41.7861 -3.41498
53.1277 -9.5328 56.2456
49.975 -7.4799 56.906
-118.684 43.2168 -2.79479
151.419 -27.4244 6.39741
150.447 -27.2137 9.40029
-67.786 22.9651 -50.1005
-71.8864 22.2374 -49.7277
47.6437 57.3165 6.0757
-151.967 3.59745 27.5636
-148.928 1.04008 29.7246
-107.118 34.5419 31.6561
-116.79 36.6098 -24.2863
-26.883 -25.9376 53.2801
-94.7779 -39.9634 -30.0531
-99.4947 -39.1586 -29.2349
145.147 -27.9539 15.4707
148.084 -26.5894 14.4338
-95.7097 29.933 -39.7812
42.4208 -5.80348 -57.8447
-98.8238 27.7494 -40.4269
-108.951 38.7618 -25.3827
-112.496 38.7052 -23.5063
-80.7498 39.6912 35.0188
127.923 -25.9352 -30.3965
-77.6949 41.3301 33.9528
-118.404 34.2617 -26.6419
64.7015 -54.8619 8.81258
43.0593 -34.3316 -46.8439
47.0471 -34.5881 -46.181
87.2239 30.6715 -41.5673
-110.362 44.2181 12.3949
-109.118 43.4638 15.912
86.8658 25.5621 -44.9755
88.9701 27.754 -43.135
48.8028 8.25239 -56.9237
-81.9578 -48.3784 20.9088
-78.2349 -47.8937 23.5978
-24.8196 22.8434 -54.7975
-152.682 -25.6003 9.52119
-127.646 21.562 -33.7689
-38.9523 -33.0839 48.1633
-126.028 18.0943 -36.443
-124.646 24.565 -33.0827
-142.862 -9.01669 -31.9381
40.4859 1.1606 -58.2922
-142.973 -5.34428 -32.6937
-5.22141 7.7139 59.474
76.004 -37.7777 -38.2836
-112.174 19.117 41.1588
-107.209 -22.3631 -41.1431
-103.931 -24.4152 -41.0059
82.1605 -34.6235 -39.6836
79.8286 -36.9384 -38.1494
-149.335 -0.988913 -29.4755
37.9524 -25.2624 -52.7776
41.3037 -24.6389 -52.7643
-142.895 5.51567 -32.7068
-145.838 -0.759014 -31.5525
-143.361 1.44916 -32.8898
-122.458 32.3664 -26.7677
71.4351 -50.7381 -20.0227
19.4122 57.7157 -14.9252
14.5261 57.5171 -16.3081
72.0006 -48.9074 -23.9458
75.3141 -47.7237 -25.0602
-145.959 -30.7892 -6.62267
-141.946 -32.6878 -8.04892
100.089 -40.9838 -26.3417
95.4938 -39.446 -30.4565
-127.421 9.84605 38.927
-128.799 6.69923 39.0404
95.9373 -41.2688 -27.7502
-50.9129 23.4656 52.2687
5.98551 2.91209 59.8927
165.894 -14.2264 -5.32232
166.848 -11.6013 -7.56862
-46.6904 24.2759 52.3812
110.948 45.7461 -0.550087
117.404 43.7268 0.693405
114.639 44.572 -2.0959
103.961 -25.3379 -40.4328
99.9128 -26.0915 -41.1959
-8.53478 9.45859 59.1745
99.0226 -22.971 -43.2653
-45.5419 43.2611 38.3999
-42.0219 47.1604 34.0546
-33.2467 47.743 34.428
-33.8507 49.8413 31.2339
-157.967 -21.1716 9.83763
-155.914 -23.9198 7.19455
103.042 44.654 -17.4965
98.961 46.1576 -16.4475
37.9656 -58.4577 -2.49723
41.459 -58.2124 -0.94161
85.6058 -45.7342 -24.7224
88.5723 -43.8096 -26.8379
-124.712 -38.5171 14.5718
105.144 45.1066 -14.5575
-57.7023 50.7307 24.8751
-71.2534 49.9117 22.0738
-66.07 48.8876 25.9919
-61.7416 50.4694 24.2104
17.0125 1.80539 59.6767
-95.3679 41.7834 -27.2153
-91.5842 42.5095 -27.678
-41.0034 -33.5814 -47.6073
-30.7286 18.8789 -55.9284
-26.9493 19.6268 -55.9095
147.282 8.51672 29.526
147.712 12.2268 27.9158
-39.0248 -36.616 -45.5283
-40.2332 -39.4703 -42.9409
50.6767 -56.1492 11.5264
47.368 -57.059 8.34126
-113.621 43.4836 11.3442
-155.51 10.6696 -22.923
-138.755 11.4433 33.3463
-155.256 13.6556 -21.5058
-93.0985 47.8433 15.8084
-102.206 47.1273 -10.0069
-105.364 45.7813 -12.039
-87.9025 47.9723 18.7799
-88.9885 48.8263 15.7003
53.8823 -14.6608 55.042
51.0114 -13.0838 55.7695
-150.33 -23.949 -16.1156
-146.598 -25.7836 -17.4392
3.60354 15.8611 57.8518
1.25216 18.9952 56.9121
-55.2049 48.0586 -30.2865
-58.9787 47.2638 -30.6639
47.471 -0.695619 -57.6509
43.8213 -1.96984 -57.9743
-61.7222 48.2502 -28.3816
-84.1296 -52.0488 -4.9406
-157.804 -15.9359 -17.2445
-155.222 -19.4488 -16.4928
13.9151 -52.23 29.1259
12.3877 -48.6574 34.8378
-111.663 -32.831 -31.5535
128.749 -38.227 -10.4554
125.749 -39.7372 -9.22222
-145.261 -10.9379 -29.9513
-11.8309 30.1882 51.6869
-9.05997 32.7174 50.1948
11.0086 -50.8948 31.5418
-98.0431 48.8522 6.05311
-93.7051 50.05 4.47407
-135.579 -2.20188 36.6706
53.798 13.0981 55.4447
-132.705 0.475589 37.9968
-131.659 4.34921 38.1957
-56.5186 -7.13626 56.1961
-59.7346 -5.27352 55.9941
96.7995 30.6179 38.928
[...]
POINT_DATA 4978
VECTORS F double
-2.98947e-08 2.89669e-08 -2.14017e-08
6.51957e-08 3.58304e-08 5.91258e-09
7.01942e-08 3.45056e-08 5.92611e-09
8.1165e-08 3.03126e-08 8.16393e-09
7.95357e-08 2.98295e-08 6.37084e-09
-5.21316e-08 1.35468e-08 -1.18472e-08
-5.53332e-08 1.28292e-08 -1.00947e-08
1.01567e-07 2.26134e-08 9.51682e-09
9.72313e-08 2.46169e-08 1.13871e-08
4.57732e-09 4.36722e-08 -1.08053e-08
-5.08499e-09 4.12093e-08 5.23702e-09
1.11374e-08 4.49531e-08 -8.8544e-09
-1.77429e-08 3.60034e-08 -2.0582e-08
8.47489e-10 2.50986e-08 2.56163e-09
-5.54524e-09 2.08278e-08 8.87009e-10
-1.73794e-08 3.45331e-08 -2.07855e-08
1.15559e-07 1.92353e-08 1.36425e-08
1.20057e-07 1.79552e-08 1.41321e-08
-1.88508e-08 3.29708e-09 1.74159e-09
6.58765e-08 2.95791e-08 9.94406e-10
7.36863e-08 3.60583e-08 1.30768e-08
7.50835e-08 3.89295e-08 1.65464e-08
6.59729e-08 3.06719e-08 -1.10137e-11
7.54998e-09 4.76243e-08 -1.20688e-08
4.91246e-08 4.62847e-08 1.26174e-09
2.7558e-08 5.13561e-08 6.5153e-10
4.53709e-08 5.94707e-08 1.54693e-08
4.47222e-08 5.76311e-08 1.42568e-08
1.96285e-08 5.06651e-08 1.20186e-09
-2.83926e-08 2.44648e-08 7.00746e-09
-8.18999e-08 2.16285e-09 -1.62791e-09
-8.10583e-08 2.68165e-09 2.25953e-10
-3.93806e-08 -2.33661e-08 -1.80136e-09
-4.01891e-08 -2.30888e-08 -2.67187e-09
2.30559e-08 3.83775e-08 2.82545e-09
-5.87541e-08 -2.05013e-08 -6.81783e-10
-1.87331e-08 3.66794e-08 -1.5874e-08
-1.92221e-08 3.71718e-08 -1.47185e-08
9.62815e-08 3.74941e-08 3.23751e-08
7.55931e-08 2.3777e-08 1.14886e-09
1.00636e-07 1.81718e-08 6.02591e-09
9.80976e-08 1.92629e-08 4.29953e-09
7.35129e-08 2.35486e-08 2.35492e-09
4.26654e-08 -2.97934e-08 -3.74046e-09
6.83119e-09 5.00882e-08 -7.40505e-09
1.22001e-10 4.59244e-08 -9.21466e-09
8.21265e-08 2.19307e-08 4.10658e-09
-3.77947e-08 2.20883e-08 -1.42702e-08
-3.70823e-08 2.07175e-08 -1.5163e-08
-7.45572e-08 -7.23645e-09 -1.67712e-09
-7.52705e-08 -6.54785e-09 -1.65906e-09
2.02801e-08 3.66793e-08 9.85433e-09
2.10305e-08 3.46999e-08 9.72547e-09
3.12202e-08 4.42893e-08 1.28047e-08
1.10023e-07 1.52188e-08 1.7699e-09
1.07766e-07 1.53374e-08 3.96005e-09
8.43526e-08 2.21112e-08 2.26157e-09
-1.67038e-09 4.42512e-08 -1.7499e-08
-4.31303e-09 4.06535e-08 -1.82057e-08
1.25474e-08 4.53943e-08 -1.01367e-08
2.11666e-08 3.75841e-08 4.16385e-09
1.28209e-08 3.80373e-08 5.08289e-09
-2.29587e-08 3.03459e-08 6.7497e-09
-1.57999e-08 3.76228e-08 -2.03076e-08
4.53613e-08 3.81283e-08 -8.86137e-10
-1.90463e-08 3.57509e-08 -2.17271e-08
-6.44854e-08 -9.90516e-09 -5.59823e-11
-6.40664e-08 -1.0292e-08 -2.15619e-10
1.3032e-08 -3.02432e-08 5.20107e-09
8.47973e-09 -3.26976e-08 4.50445e-09
-7.26346e-08 -4.01231e-09 -3.23856e-09
-7.18763e-08 -4.68675e-09 -3.17294e-09
5.29989e-08 -2.38445e-08 -2.83434e-09
4.89698e-08 -2.41758e-08 -4.33887e-09
-3.68989e-09 -4.23783e-08 3.31438e-09
-7.23481e-09 -4.44225e-08 1.7467e-09
6.93296e-08 4.29559e-08 -2.60667e-08
6.56839e-08 4.62689e-08 -2.46283e-08
-6.80669e-08 -4.87275e-09 2.96173e-09
-6.76748e-08 -5.50619e-09 2.88499e-09
-4.61491e-08 -2.26857e-08 -1.72498e-09
-7.38627e-08 -8.14494e-09 1.28516e-09
-2.13861e-08 3.54212e-08 -2.24698e-08
9.13479e-08 2.96871e-08 1.62571e-08
8.80268e-08 3.06764e-08 1.50247e-08
-4.21727e-08 1.82719e-08 -1.66861e-08
-1.04619e-08 -1.12755e-08 -5.33319e-10
-4.297e-08 1.86794e-08 -1.58408e-08
-4.0582e-08 -2.4261e-08 -3.1229e-09
1.00131e-07 2.15379e-08 7.46821e-09
1.04287e-07 1.97377e-08 7.42792e-09
1.02574e-07 2.03934e-08 5.91009e-09
-2.70982e-08 3.11491e-08 1.65775e-08
-2.19687e-08 3.1036e-08 1.51945e-08
-5.49085e-08 -1.78634e-08 -1.04654e-09
-5.17151e-08 -1.99204e-08 -2.38009e-09
-4.73215e-08 -1.90893e-08 -1.47979e-09
9.88613e-08 1.69035e-08 -6.75726e-09
-4.81078e-08 1.48018e-08 7.56245e-09
-4.40739e-08 1.55451e-08 9.10104e-09
6.57852e-08 3.60501e-08 2.46284e-09
6.83704e-08 3.41647e-08 3.67514e-09
1.01297e-07 1.5549e-08 -4.89927e-09
1.03e-07 1.68297e-08 -8.09194e-09
1.14494e-07 1.65858e-08 6.82579e-09
1.16408e-07 1.57231e-08 7.85932e-09
-3.41821e-08 3.45766e-08 -1.42969e-09
-3.30977e-08 3.41638e-08 7.29819e-10
-2.87446e-08 3.74371e-08 2.81729e-09
-2.73698e-08 3.18322e-08 -2.19156e-08
9.49782e-08 2.58488e-08 3.2645e-08
9.51481e-08 2.20562e-08 2.98678e-08
-4.69769e-08 1.41637e-08 -6.81885e-09
-2.23665e-08 3.46783e-08 -2.15758e-08
3.82779e-08 3.38509e-08 4.12243e-10
3.61912e-08 3.23924e-08 1.94105e-09
3.06942e-08 3.42972e-08 2.07203e-09
-1.31254e-09 4.46455e-08 -1.09114e-08
8.81668e-08 1.94384e-08 -3.57134e-09
8.83663e-08 1.97926e-08 -4.72899e-09
8.53568e-08 1.97341e-08 -3.0927e-09
8.0423e-08 2.09316e-08 -3.2143e-09
-5.84739e-08 -2.08598e-08 -7.71092e-10
-6.09653e-08 -2.06429e-08 -5.07248e-10
-6.16766e-08 -1.96082e-08 -5.98994e-10
-5.90454e-08 1.15446e-08 3.77938e-09
-2.34025e-08 3.36559e-08 -2.16866e-08
-2.26056e-09 -3.11237e-08 -8.25113e-10
-9.30254e-09 -3.06062e-08 -5.44209e-10
-2.29945e-08 3.21055e-08 -2.16015e-08
-2.9735e-08 2.66929e-08 -2.1089e-08
9.84566e-08 2.57413e-08 1.40657e-08
-2.90721e-08 2.95986e-08 -2.13977e-08
-2.18976e-08 2.49296e-08 1.13434e-08
-2.29533e-08 2.43601e-08 9.99927e-09
-3.38843e-08 2.81396e-08 1.68741e-08
-2.56097e-08 2.31923e-08 1.03197e-08
-5.19811e-08 -1.2747e-09 -3.62022e-09
-4.57338e-08 -9.43965e-10 -3.31722e-09
8.08521e-08 2.22111e-08 -4.99403e-09
-4.89914e-08 -2.8179e-09 -2.66351e-09
-3.62428e-08 2.32669e-08 -1.35419e-08
-3.91228e-08 2.13393e-08 -1.14668e-08
-3.83037e-08 2.03198e-08 -1.27761e-08
1.66722e-08 4.342e-08 -5.78429e-09
1.81479e-08 4.42093e-08 -6.24736e-09
2.09974e-08 4.47958e-08 -4.62777e-09
-2.47752e-08 3.08378e-08 6.85815e-09
-1.89602e-08 3.29712e-08 7.7907e-09
-1.86798e-08 3.69725e-08 7.1884e-09
-2.08477e-08 3.64008e-08 6.28817e-09
-2.47662e-08 3.50847e-08 -1.31162e-08
-6.16441e-08 8.5422e-09 -9.24259e-09
-6.18347e-08 5.84284e-09 -7.86205e-09
-5.63284e-09 -3.80007e-08 2.02248e-09
-1.34172e-08 -3.77651e-08 2.01284e-09
-2.14858e-08 3.66238e-08 -1.34227e-08
2.55262e-08 4.36313e-08 -4.28118e-09
7.91589e-08 4.22862e-08 1.93626e-08
8.70761e-08 3.99785e-08 2.05773e-08
1.80184e-08 4.52757e-08 -5.32319e-09
2.90525e-08 4.59189e-08 -2.22765e-09
2.18145e-08 -2.41303e-09 -1.25015e-09
3.32959e-08 -3.40777e-09 -1.87572e-09
-3.22016e-08 2.89401e-08 -2.19738e-08
-3.11811e-08 3.00158e-08 -2.34843e-08
-6.49421e-08 -1.25911e-08 1.48708e-10
-4.96284e-08 1.20817e-08 -5.49065e-09
-6.56129e-08 -1.22628e-08 -4.98569e-10
1.20197e-07 -2.1922e-08 -9.51296e-09
1.19697e-07 -1.73358e-08 -2.61679e-09
2.4907e-08 -5.28389e-09 -4.52752e-10
9.61507e-08 2.19441e-08 5.21155e-09
9.80417e-08 2.19516e-08 5.56054e-09
9.82976e-08 2.13225e-08 6.49385e-09
-6.16933e-08 -1.20016e-08 -6.11573e-10
-6.18767e-08 -1.26232e-08 -7.15509e-12
-3.74193e-08 2.87126e-08 -1.85571e-09
5.67787e-09 3.04983e-08 -4.67315e-09
-6.95943e-08 1.18465e-08 1.22396e-08
-6.66392e-08 1.27469e-08 1.2015e-08
5.11674e-09 3.05552e-08 -3.82238e-09
5.80896e-08 2.96459e-08 -4.97662e-09
1.43136e-07 1.0929e-09 9.7388e-10
1.4861e-07 -1.94345e-10 1.32711e-09
1.02469e-10 3.17447e-08 -2.16814e-09
-3.86352e-08 1.57987e-08 3.49782e-09
-3.90625e-08 1.72657e-08 6.13072e-09
-3.40011e-08 1.91146e-08 6.36837e-09
-3.92278e-08 1.70846e-08 3.34855e-09
-3.58057e-08 1.83323e-08 5.54177e-09
1.38535e-07 1.20787e-08 -2.04532e-08
8.73063e-08 2.09797e-08 -2.67803e-09
3.3682e-08 4.89187e-08 -1.23433e-08
1.39733e-07 1.20112e-08 -2.37281e-08
9.51222e-08 1.93322e-08 -1.76954e-09
8.95254e-08 1.94352e-08 -2.03724e-09
-5.04457e-08 2.71632e-08 -2.08163e-08
-5.00609e-08 3.03131e-08 -2.23622e-08
-7.81211e-08 4.55209e-09 -8.36797e-09
6.06829e-08 -2.32818e-08 -9.43719e-09
5.56573e-08 -2.27116e-08 -8.53379e-09
-3.22786e-08 1.48043e-08 5.41764e-09
-3.62828e-08 1.07551e-08 5.14353e-09
4.30036e-08 -2.65601e-08 -8.96809e-09
-4.25732e-08 3.29413e-08 -2.19285e-08
-5.75292e-08 -2.21237e-08 -9.64893e-10
-3.76338e-08 2.2935e-08 -1.12632e-09
-4.6929e-08 2.02125e-08 1.41876e-08
-7.55981e-08 -8.9848e-09 9.80609e-10
-7.60631e-08 -9.39262e-09 3.59968e-10
-4.95892e-08 1.89613e-08 1.42592e-08
-5.57904e-08 1.20556e-08 5.51464e-09
-5.73892e-08 1.3392e-08 8.47842e-09
-5.67932e-08 2.29418e-08 -2.14603e-08
-5.70674e-08 2.50765e-08 -2.14103e-08
5.9563e-08 -2.1506e-08 -8.03748e-09
6.66195e-08 -2.42329e-08 -1.07674e-08
-3.80199e-08 2.59812e-08 -2.82104e-09
-1.28397e-08 2.75342e-08 9.77238e-09
8.76358e-09 3.51428e-08 6.47214e-09
-1.36941e-08 4.5451e-08 -6.72853e-09
-9.88407e-09 5.1773e-08 -5.76837e-09
4.16132e-09 3.24027e-08 7.61683e-09
-3.81465e-08 2.53313e-08 -8.63997e-10
-1.03488e-08 4.54763e-08 -1.09584e-08
-7.01315e-09 4.59377e-08 -1.00588e-08
-6.51864e-08 -1.79639e-08 -3.79421e-10
-6.59234e-08 -1.71043e-08 -4.5702e-10
8.40995e-08 2.77394e-08 6.17659e-09
-1.9353e-08 -2.95205e-08 -1.48344e-09
-1.59772e-08 -2.7482e-08 -2.70711e-10
8.00111e-08 2.91509e-08 4.82817e-09
-2.14043e-08 -1.06334e-08 6.72988e-10
-1.99121e-08 -7.75292e-09 1.12182e-09
8.18872e-08 2.78417e-08 4.79472e-09
-4.71814e-08 -3.22155e-08 -1.38354e-09
-4.66971e-08 -3.19567e-08 -1.01663e-09
5.66987e-08 4.24795e-08 1.008e-08
5.58579e-08 4.00874e-08 8.04066e-09
4.00426e-07 -1.45482e-08 -2.5596e-07
1.38494e-08 4.25926e-08 3.7891e-09
1.14959e-08 3.96342e-08 5.6647e-09
6.69561e-08 2.50826e-08 3.68497e-10
7.34152e-08 3.30505e-08 6.59891e-09
-3.5905e-08 3.24601e-08 1.35842e-08
-3.42733e-08 2.65462e-08 -2.20674e-08
-3.503e-08 2.65053e-08 -2.09071e-08
-4.56918e-08 -3.05048e-08 -2.63687e-09
-4.45966e-08 -3.12843e-08 -1.61539e-09
6.46736e-08 3.69629e-08 8.76294e-09
-1.72215e-08 -5.39484e-09 -1.00497e-09
6.08872e-08 3.7953e-08 7.82938e-09
7.78013e-08 3.18758e-08 7.79306e-09
7.58539e-08 3.10932e-08 6.75423e-09
7.95801e-08 2.12965e-08 -1.67226e-09
-3.79993e-08 -2.56307e-08 2.29057e-09
8.24843e-08 2.03688e-08 -1.68655e-09
6.8149e-08 3.44166e-08 7.18031e-09
-7.42761e-08 -1.07089e-08 9.58454e-11
-5.24694e-08 -5.78141e-09 -1.66754e-09
-5.17035e-08 -6.05667e-09 -1.9124e-09
4.32149e-08 -2.5626e-08 -7.80706e-09
8.33532e-08 2.44759e-08 3.5435e-09
8.20399e-08 2.34823e-08 4.73441e-09
3.36076e-08 -2.68436e-08 -7.31007e-09
3.78796e-08 -2.86436e-08 -8.86467e-09
3.91855e-09 -1.14185e-08 -1.24409e-09
-5.16166e-08 1.48851e-08 9.67098e-09
-5.20113e-08 1.62332e-08 1.1836e-08
6.36399e-08 5.41749e-08 1.90549e-08
-3.56946e-08 2.67111e-08 1.74331e-09
4.83534e-08 4.21381e-08 4.52941e-09
-4.16098e-08 3.15681e-08 1.75645e-08
4.37069e-08 4.06896e-08 1.69818e-09
5.36118e-08 3.95089e-08 4.60732e-09
-2.90378e-09 4.33453e-08 -1.0647e-08
-7.95715e-09 -3.7771e-09 -7.51816e-10
3.98905e-09 4.48153e-08 -9.4614e-09
1.68903e-08 4.23071e-08 -5.30578e-09
-5.2508e-08 -1.37799e-08 8.35635e-10
4.17648e-08 3.19685e-08 -9.13177e-10
-1.03332e-08 3.99774e-08 -1.84331e-08
-1.04539e-08 3.79081e-08 -1.9327e-08
-4.81118e-08 -1.55467e-08 1.36938e-09
-5.18506e-08 -1.36367e-08 -7.92797e-11
8.80981e-09 4.54458e-08 -6.98914e-09
-4.21839e-08 -3.05966e-09 -2.2492e-09
-4.14588e-08 -3.84527e-09 -2.17762e-09
2.30259e-08 4.597e-08 -4.56373e-09
1.03426e-08 4.58262e-08 -6.95495e-09
1.39078e-08 4.56721e-08 -5.40936e-09
6.63885e-08 3.60432e-08 6.39887e-09
-6.91046e-08 -1.16866e-08 -5.69316e-10
1.77338e-07 -4.38745e-09 1.12714e-08
1.71849e-07 -1.51152e-09 1.3409e-08
-6.60162e-08 -1.16093e-08 -5.90398e-10
-6.51146e-08 -1.23767e-08 -3.88073e-10
-3.89668e-08 2.44529e-08 -8.54384e-09
-3.82071e-08 2.28304e-08 -1.02269e-08
-5.61765e-08 -1.69209e-08 1.94553e-10
-5.32274e-08 -1.60753e-08 3.88316e-10
2.94509e-08 3.27684e-08 3.51398e-09
2.432e-08 3.38089e-08 4.02136e-09
-5.69573e-08 -1.6883e-08 1.00037e-09
5.86815e-08 3.07804e-08 -6.82075e-09
-4.07414e-10 3.13101e-08 -1.51737e-09
-3.00298e-08 -4.30737e-08 5.40697e-10
-2.45066e-08 -4.39068e-08 1.16077e-09
5.97059e-08 3.32774e-08 -8.90684e-09
6.48917e-08 -1.92586e-08 7.54012e-10
6.16312e-08 -2.03004e-08 2.63889e-09
6.4351e-08 -2.03009e-08 -8.09471e-10
-3.54866e-08 -1.94484e-08 1.01702e-09
-3.61263e-08 -2.08207e-08 2.46007e-09
1.8994e-08 4.69022e-08 -7.16155e-09
-3.17022e-08 -1.96973e-08 1.57492e-09
9.66098e-08 1.77662e-08 -5.98787e-09
1.0341e-07 1.57322e-08 -6.16461e-09
1.09117e-07 1.293e-08 -5.03016e-09
1.10866e-07 1.31571e-08 -6.2853e-09
-3.32023e-08 3.14647e-08 2.44429e-09
-3.57439e-08 2.86069e-08 2.76792e-10
6.65793e-08 -2.20398e-08 -8.24491e-09
6.72281e-08 -2.01638e-08 -7.06584e-09
-7.92845e-08 -6.27602e-09 -6.54321e-10
-7.88057e-08 -6.86506e-09 -3.82083e-10
-6.23583e-08 -1.40066e-08 -5.24178e-10
-5.9841e-08 -1.53636e-08 9.00964e-10
-3.84418e-08 1.59964e-08 2.00414e-09
6.51285e-08 -2.07609e-08 -6.73808e-09
1.04825e-07 1.6597e-08 -4.07892e-09
9.87057e-08 1.7638e-08 -8.74272e-10
9.99526e-08 1.79124e-08 -2.58561e-09
1.03045e-07 1.61401e-08 -1.47388e-09
-5.7622e-09 2.29428e-08 -4.92966e-10
8.41767e-08 2.89202e-08 8.28849e-09
8.58432e-08 2.98715e-08 1.11034e-08
-4.11268e-08 3.61116e-08 -2.11359e-08
5.53696e-08 5.58502e-08 1.51281e-08
5.54207e-08 5.89032e-08 1.74072e-08
8.94339e-09 -3.52815e-08 4.71525e-09
1.66518e-08 -3.55571e-08 4.78662e-09
-4.77385e-08 3.12898e-08 -2.01552e-08
-5.09163e-08 2.97494e-08 -2.15046e-08
-7.62702e-08 -8.23706e-09 9.27283e-10
-7.72519e-08 -7.69514e-09 1.06877e-09
8.159e-08 2.49455e-08 4.42634e-09
2.83336e-08 4.87198e-08 -8.55643e-10
2.98898e-08 3.55072e-08 3.04161e-09
3.45172e-08 4.8465e-08 2.66311e-10
9.21595e-08 2.0561e-08 4.21949e-09
9.03956e-08 2.51977e-08 5.63656e-09
8.74004e-08 2.65174e-08 7.19216e-09
9.2698e-08 1.94853e-08 3.34525e-09
9.32256e-08 1.98926e-08 2.82584e-09
-2.76244e-08 -9.88298e-09 6.783e-10
-2.70545e-08 -7.91893e-09 1.1718e-09
-3.05898e-08 3.1743e-08 -1.22385e-08
-3.01223e-08 3.04899e-08 -1.40787e-08
2.67824e-08 4.20173e-08 -1.1724e-08
3.61236e-08 4.83754e-08 -1.62433e-08
1.04101e-07 2.36695e-08 1.43283e-08
1.0176e-07 2.37439e-08 1.26358e-08
-9.37568e-09 -8.98154e-09 -8.36782e-10
-1.05763e-08 -7.24751e-09 -7.32479e-10
1.01123e-07 2.38272e-08 1.3584e-08
-5.70283e-08 1.18617e-08 -6.07429e-09
-2.24596e-08 3.96152e-08 -1.1447e-08
-2.5832e-08 3.47604e-08 -1.12264e-08
-7.33044e-08 5.94105e-10 5.35291e-09
-6.94992e-08 2.3448e-09 6.30046e-09
-2.41572e-08 3.08544e-08 -2.16375e-08
-5.65797e-08 -2.36023e-08 9.96349e-10
-5.79389e-08 -2.24936e-08 2.0179e-10
-5.85424e-09 4.19624e-08 -1.18482e-08
7.51591e-08 3.9522e-08 -2.0977e-08
8.0304e-08 3.54642e-08 -2.13413e-08
-7.21826e-08 2.23092e-09 6.68397e-09
9.32281e-08 2.23589e-08 4.41847e-09
9.58278e-08 2.14186e-08 6.11005e-09
8.57731e-09 3.68974e-08 6.09798e-09
1.10683e-08 -1.13797e-08 1.37349e-09
1.33575e-08 3.52154e-08 5.27067e-09
2.14938e-08 3.44795e-08 5.14437e-09
1.02268e-08 4.17631e-08 6.56268e-09
9.77354e-09 4.23366e-08 5.26375e-09
4.00892e-08 -2.60264e-08 8.26616e-09
3.64373e-08 -2.87684e-08 8.95083e-09
3.65219e-08 -2.71857e-08 8.70545e-09
-3.72063e-08 2.45568e-08 -2.10531e-08
-3.65766e-08 2.18573e-08 -1.91423e-08
-3.60654e-08 2.46456e-08 -2.05666e-08
-9.7158e-11 3.09335e-08 8.05372e-09
1.15658e-09 3.33753e-08 8.77597e-09
-3.70465e-08 8.77462e-10 3.26526e-09
-3.28718e-08 -1.55683e-09 2.27505e-09
6.64873e-09 3.24699e-08 7.54514e-09
-1.96685e-09 -3.48403e-08 1.5865e-09
-4.0157e-11 -3.55777e-08 2.83091e-09
4.09982e-08 4.64586e-08 -6.9955e-09
-1.75595e-09 -3.46789e-08 2.7924e-09
2.48603e-09 -4.22925e-08 -2.07234e-09
-1.69486e-09 -4.48637e-08 -3.4696e-10
-2.68817e-08 3.42379e-08 -2.36181e-08
7.28299e-08 2.26556e-08 -1.05957e-10
1.61736e-09 4.87015e-08 -1.4953e-08
2.02914e-09 4.37787e-08 -1.51926e-08
6.51919e-09 4.72048e-08 -1.34117e-08
2.08606e-08 -3.79902e-08 -4.22738e-09
2.04794e-08 -3.88197e-08 -4.56998e-09
2.27876e-08 -3.6162e-08 -5.48268e-09
-7.01715e-08 -1.09527e-08 -8.83325e-10
1.06491e-08 3.14008e-08 6.29654e-09
1.49711e-08 3.38493e-08 4.92833e-09
1.06094e-07 2.20521e-08 1.34451e-08
2.3417e-08 3.38073e-08 2.83301e-09
2.07196e-08 3.30471e-08 4.18855e-09
1.24731e-07 2.70017e-08 -4.2617e-08
1.12716e-07 2.13249e-08 -3.27881e-08
-6.65599e-09 2.3956e-08 -2.29537e-10
1.09549e-07 2.28165e-08 -3.76297e-08
-1.59682e-08 3.31122e-08 1.50062e-08
-1.52115e-08 3.35511e-08 1.57673e-08
3.0016e-08 3.15116e-08 2.21094e-09
-1.14159e-08 5.08813e-08 -5.97088e-09
-4.19094e-08 1.66135e-08 -1.98029e-09
-4.1192e-08 1.53941e-08 -1.38787e-09
2.39451e-08 -2.42212e-08 -5.25634e-09
1.03271e-07 2.20777e-08 9.76103e-09
1.05571e-07 2.07453e-08 9.55638e-09
-4.62072e-09 5.20779e-08 -5.92311e-09
1.21524e-07 1.34843e-08 5.98972e-09
6.19115e-08 4.0364e-08 1.10565e-08
6.71617e-08 3.9982e-08 1.29191e-08
1.19355e-07 1.44958e-08 6.05493e-09
3.30208e-08 -2.73794e-08 -6.92699e-09
-7.04289e-08 -8.52409e-09 -1.41019e-09
-7.1119e-08 -8.06969e-09 -1.0766e-09
-7.86014e-08 -2.78854e-09 2.978e-09
-7.0283e-08 -9.0773e-09 -9.58123e-10
8.02375e-08 3.14141e-08 1.26866e-08
-3.77272e-08 2.26257e-08 1.10011e-09
5.72754e-08 4.37777e-08 -1.68965e-08
5.23979e-08 4.63088e-08 -1.55106e-08
9.06486e-08 2.82923e-08 1.36155e-08
9.16987e-08 3.0133e-08 1.74833e-08
7.23848e-08 3.11083e-08 2.2582e-09
7.04236e-08 3.27181e-08 1.89569e-09
8.63063e-08 3.04482e-08 1.4275e-08
1.1424e-07 1.74603e-08 9.29134e-09
1.12195e-07 1.83584e-08 8.71714e-09
1.17216e-07 1.81053e-08 1.14047e-08
-8.03702e-08 4.31278e-09 -6.04556e-09
-8.15565e-08 2.65398e-09 -4.22096e-09
-7.98456e-08 3.66368e-09 -6.20534e-09
6.8349e-08 -1.88535e-08 1.87348e-09
9.56949e-08 1.92195e-08 -5.59348e-09
9.37881e-08 1.80365e-08 -2.24447e-09
9.07611e-08 1.92875e-08 -2.58119e-09
-3.85491e-08 2.16595e-08 1.50557e-08
5.91821e-08 2.93235e-08 1.08825e-09
6.03734e-08 3.0893e-08 -6.40807e-10
1.03414e-07 2.20516e-08 1.07185e-08
1.0687e-07 2.02151e-08 8.41894e-09
1.10702e-07 1.33147e-08 -3.98154e-09
-6.71494e-08 -1.59908e-08 3.37201e-10
-6.89834e-08 -1.55935e-08 -1.5126e-10
-7.00873e-08 -1.43286e-08 -2.98536e-10
-6.96905e-08 -1.4734e-08 -1.00618e-10
1.12277e-07 1.34456e-08 -5.65791e-09
-3.4809e-08 2.2209e-08 4.50276e-09
-2.79787e-08 2.66112e-08 7.68298e-09
-2.84699e-08 2.41339e-08 7.27225e-09
-3.23896e-08 2.27408e-08 5.61195e-09
8.44541e-09 4.44115e-08 -1.05137e-08
8.48601e-09 4.56313e-08 -9.28946e-09
5.85187e-08 4.01093e-08 3.97141e-09
5.60662e-08 4.18859e-08 2.30529e-09
-5.66426e-08 -9.80991e-09 -6.31968e-10
-5.97607e-08 -1.07923e-08 2.91061e-10
1.35091e-07 4.5658e-09 -1.48456e-09
1.31992e-07 5.78146e-09 -1.50148e-09
6.30003e-08 2.42058e-08 -4.50921e-10
6.02852e-08 2.58993e-08 -5.00705e-10
-3.22637e-08 2.57937e-08 5.51354e-09
-3.55037e-08 2.30119e-08 2.82153e-09
-2.64504e-08 2.67242e-08 -5.62807e-09
1.21808e-07 1.66113e-08 1.2562e-08
1.25118e-07 1.4497e-08 1.01749e-08
1.27027e-07 1.34922e-08 1.04278e-08
1.29073e-07 1.35993e-08 1.14306e-08
3.1055e-08 3.28991e-08 2.07794e-09
-7.6251e-08 -6.98256e-09 1.64574e-09
-7.56867e-08 -7.70424e-09 1.72671e-09
3.59401e-08 3.10346e-08 2.11398e-09
3.39626e-08 4.45082e-08 -2.01645e-09
2.71329e-08 4.47829e-08 -3.28361e-09
-1.45823e-08 3.82976e-08 -1.33537e-08
-1.11297e-08 4.25801e-08 -1.24185e-08
-1.29155e-08 4.18634e-08 -1.09383e-08
-2.25137e-08 3.20452e-08 -1.9869e-08
-2.13272e-08 3.44159e-08 -2.21299e-08
-1.67605e-08 3.48433e-08 -1.9895e-08
9.07392e-10 4.28375e-08 -1.30848e-08
-3.61931e-09 4.02117e-08 -1.35568e-08
-4.93234e-08 -2.0874e-08 1.4923e-09
-5.01867e-08 -2.10594e-08 2.42256e-09
-4.36257e-08 -6.9403e-09 -1.31367e-09
-4.42344e-08 -8.86736e-09 -4.70112e-10
-5.79348e-10 4.2146e-08 -1.19538e-08
7.7535e-08 3.82644e-08 1.8585e-08
7.82609e-08 3.89384e-08 1.78143e-08
7.70468e-08 3.7999e-08 1.57674e-08
5.07642e-08 4.38909e-08 2.14532e-09
4.25268e-08 4.64229e-08 1.039e-09
4.66318e-08 4.66839e-08 2.14338e-09
-2.01957e-08 4.39033e-08 -8.34706e-09
-1.9115e-08 4.615e-08 -6.08722e-09
-8.94324e-09 -4.71531e-08 1.5391e-09
3.27749e-09 4.359e-08 -1.40267e-08
3.15371e-09 4.50524e-08 -1.24953e-08
-4.3466e-09 -4.5561e-08 2.74674e-09
-1.58116e-08 -4.52951e-08 1.05306e-09
7.4472e-08 2.35004e-08 -2.08027e-09
-5.54717e-09 -1.09429e-08 1.0467e-09
-3.16806e-08 2.8696e-08 -1.48898e-08
-3.0444e-08 2.79626e-08 -1.65308e-08
-3.5128e-08 2.53244e-08 -1.50787e-08
6.9976e-08 2.39545e-08 -3.32849e-10
1.00278e-07 2.23734e-08 9.61426e-09
-5.70521e-08 3.62421e-10 -4.71333e-09
1.06564e-07 2.00812e-08 7.68888e-09
1.04483e-07 2.13001e-08 8.74342e-09
3.39624e-08 -3.85318e-09 1.35646e-09
3.70374e-08 -8.24529e-09 -3.7852e-10
-2.78481e-08 2.82521e-08 -1.82166e-08
9.81281e-08 1.72065e-08 1.13543e-10
4.45328e-08 4.15622e-08 3.81652e-09
4.73082e-08 4.1416e-08 5.11364e-09