# vtk DataFile Version 2.0
S, Created by Mohamad Ibrahim Cheikh
ASCII
DATASET UNSTRUCTURED_GRID
POINTS 4978 double
-105.624 -39.5786 -25.8396
-134.022 27.0118 -25.9104
-133.343 29.8107 -23.1201
-108.779 35.5098 -29.8394
-112.257 34.9585 -28.8987
-77.7826 -52.6715 -9.22059
-76.9 -53.3337 -5.6154
-87.9282 46.4844 -22.1963
-90.2748 44.574 -24.808
-118.096 -15.1921 -40.7646
-16.7665 -11.1468 58.6629
-118.802 -11.371 -41.7467
-105.915 -32.8342 -33.8901
13.7343 3.92054 -59.6786
16.0038 1.33328 -59.7232
-102.937 -33.8297 -34.0343
-57.0973 47.8193 -30.2356
-56.5453 49.8937 -26.8175
38.4763 -4.58106 58.2904
-137.497 30.1503 19.4022
-68.3558 26.0949 -48.446
-64.9435 26.5559 -48.7691
-140.147 30.1945 16.8432
-75.5718 -18.4695 -50.5933
-164.19 14.0861 -10.058
-168.984 3.38549 9.62086
-24.9296 9.97648 -58.5182
-28.2865 9.63525 -58.3884
-168.01 0.380556 12.0033
3.14827 -17.9823 57.2313
-1.2985 -59.9869 1.1669
-4.39683 -59.8731 3.58432
117.638 -22.5531 37.3784
113.999 -24.0045 37.8518
-143.275 2.27652 32.8889
122.078 -37.8857 18.4429
-135.598 -26.0615 -25.88
-138.972 -24.9007 -24.8093
-6.92803 33.8455 -49.4834
-114.355 35.7896 26.7979
-94.4873 49.3561 8.4242
-98.4018 48.0666 10.2056
-118.412 35.5816 24.8468
143.462 30.906 -11.1853
-156.183 -7.98985 -23.4475
-153.565 -11.4194 -24.1355
-114.191 40.5108 19.0387
-122.486 -40.0087 -12.7499
-118.55 -41.4607 -12.6652
56.7576 -53.4569 -18.654
52.6586 -54.2585 -17.7915
3.2557 11.7731 -58.8226
7.1261 12.4641 -58.6381
-5.21263 12.2896 -58.6996
-77.4153 51.6536 14.078
-80.5799 51.5893 11.9841
-110.466 40.9873 20.6425
-88.3952 -25.4376 -44.6802
-85.8028 -27.7309 -43.9281
-96.6495 -14.2771 -47.4612
-146.105 0.885326 31.3979
-140.834 -4.44808 33.9408
-0.491004 -15.2375 58.0326
-91.9597 -32.6975 -38.6725
-150.172 16.0649 24.1037
-93.9134 -35.151 -35.8418
67.2596 -45.1712 -31.7131
70.7816 -45.3712 -30.4647
107.466 17.5598 43.3329
109.552 14.2101 43.9174
43.3629 -51.8857 -26.0322
47.3284 -50.9503 -27.0155
125.705 39.7782 -9.11873
127.178 38.1303 -12.8806
162.774 5.17691 18.1511
165.111 3.02398 15.9157
-2.67165 27.1781 53.4834
-5.14615 24.3488 54.8078
49.061 -46.8412 33.335
52.4346 -46.8211 32.7289
119.989 -27.4897 32.889
61.2394 -52.7302 18.9841
-81.7843 -37.0533 -37.5258
-62.7201 36.2989 -42.4357
-66.7812 34.6728 -43.0326
-96.7542 -47.4464 -14.2393
53.229 -1.42369 -57.0184
-100.427 -46.7082 -13.5501
120.843 -24.5292 34.7924
-99.4614 48.275 -7.64282
-92.2351 50.1106 -6.88489
-96.0232 49.3613 -5.88516
-75.1394 -35.4401 40.6545
-74.4616 -32.9189 42.8666
103.92 -35.4608 31.9439
106.599 -32.6165 33.8378
105.338 -29.8873 36.7193
-49.464 39.5015 41.7144
-87.5719 -49.1613 15.63
-88.2363 -47.7645 19.1149
-152.658 27.1498 -3.12868
-148.614 29.6612 -4.03468
-54.3937 41.9428 38.4524
-50.1439 42.3718 38.6884
-77.3846 53.0017 -7.59468
-72.9533 53.6265 -8.52177
-156.39 -24.4461 2.8432
-155.697 -24.1758 6.90725
-158.132 -21.3701 9.0533
-79.6978 -39.7046 -35.2976
11.6533 40.8489 -43.7578
16.2006 41.2902 -43.1624
-102.734 -48.0402 0.152541
-85.7874 -36.7179 -36.7532
-133.973 12.3978 35.3397
-131.896 10.3415 36.9222
-133.015 6.76459 37.2577
-137.595 -15.1327 -32.4529
-67.0552 35.1941 42.5546
-69.6649 37.4483 40.0433
-74.0166 36.026 40.3908
-76.4091 33.5124 41.978
125.28 -38.0809 15.1108
124.582 -39.6592 11.2701
120.795 -41.1132 11.1057
-67.9671 -54.1319 10.2073
-102.777 -36.2713 -31.483
126.04 3.55553 -40.5277
126.38 -0.307184 -40.5528
-99.5945 -37.1644 -31.693
-100.787 -41.1134 -25.8086
-77.7275 42.7761 -32.1024
-98.406 -39.8004 -28.8163
-106.339 -32.2015 34.3319
-110.1 -31.4867 33.534
-77.629 -39.1898 36.4195
-112.329 -33.7433 30.2762
41.7527 -32.8941 -48.0057
42.0351 -27.7303 -51.1342
-68.5871 31.9391 44.7658
43.7287 -30.282 -49.4863
-129.684 -37.4439 -11.7891
-127.975 -39.0263 -8.47942
-124.414 -40.289 -9.04256
-126.535 -5.7433 -40.0854
-122.694 -6.28185 -41.4434
-120.025 -4.13764 -42.6523
-146.075 -24.1516 20.109
-146.762 -21.1054 22.7506
-150.278 -19.1718 21.6243
-153.165 -19.5389 18.6055
-146.823 -25.3768 -17.8006
17.5354 -41.0863 -43.2929
22.0875 -41.7645 -42.3792
152.282 3.69113 27.3371
152.875 -0.0643167 27.1807
-145.185 -24.1731 -20.8585
-136.739 -0.244658 -36.2059
-44.7913 24.3893 -52.5313
-44.5848 27.5783 -50.9517
-137.235 -4.09184 -35.7429
-138.636 2.21688 -35.2429
41.641 22.1666 53.8178
42.0167 27.758 51.121
-85.6038 -42.0571 -30.5624
-81.4971 -42.3743 -31.4847
82.9687 -44.5636 27.7728
-88.5338 -51.3831 0.403696
78.9655 -45.0923 28.3424
47.7237 53.2457 -22.0467
43.2798 53.443 -22.683
43.7714 24.5677 52.5535
-106.399 47.052 -0.372264
-103.254 47.5499 -5.81013
-102.833 47.973 -1.99064
81.8633 -43.1973 -30.2249
84.4491 -44.1131 -27.9451
-149.793 -29.0628 2.88993
15.0289 7.85848 59.2502
-18.2705 -52.1678 28.9423
-18.2728 -50.1857 32.257
12.2495 6.09984 59.535
-76.1292 19.9976 49.9055
-23.1074 56.7542 17.7084
-19.6195 57.3499 16.2439
11.9079 2.88234 59.7857
-112.537 -42.2753 16.1961
-109.979 -42.2347 18.3146
-116.145 -37.783 22.8247
-115.623 -40.9048 17.0329
-117.426 -39.008 19.7548
-10.0605 47.6885 36.241
-89.4038 40.3681 31.4938
-12.8799 11.2706 58.7594
-6.64051 48.6549 35.0328
-86.3034 43.9194 27.5539
-86.2771 42.1194 30.2431
-35.1156 -44.3991 -38.4416
-38.7287 -43.6259 -38.8993
0.904699 -57.2697 -17.8908
93.1856 44.5045 -23.5849
92.6111 42.69 -26.9728
20.7481 -16.6831 57.1749
23.4182 -19.0746 56.294
77.9949 33.8228 -41.3676
-39.822 -40.8188 -41.7095
128.759 -36.2554 15.995
-141.921 -33.2019 5.63552
-63.6244 -46.0797 31.3221
65.3026 -54.3272 11.2462
66.9904 -54.7714 7.11915
-64.6115 -48.0581 27.9165
-68.8829 -53.0876 14.1709
-65.9364 -52.7944 16.7478
-36.3661 -49.0046 -32.1969
-34.3257 -47.1251 -35.1422
57.6491 39.769 -40.1441
58.8114 42.3181 -37.2254
-146.42 -31.1607 2.08268
-116.638 -24.6805 36.4051
-125.387 -9.09509 39.906
-15.4563 -14.1513 -58.0559
-19.0741 -12.485 -58.3059
-123.232 -12.6236 39.7677
-144.764 -31.6546 5.68645
-155.948 -15.7323 -19.3675
-153.852 -14.4421 -22.2159
112.68 -44.0409 10.2949
108.976 -45.289 9.74655
-126.739 40.0161 -5.67529
122.061 -7.4278 41.4825
119.866 -4.79565 42.638
-133.125 37.5874 -4.18678
56.2629 -6.76678 56.2731
53.0238 -4.93288 56.8459
-129.361 39.2231 -3.58094
157.024 -23.1188 6.84755
156.001 -22.9036 9.79837
-72.9951 16.2489 -51.8039
-77.0165 15.8281 -51.2181
21.3591 59.201 6.27608
-152.827 -2.54713 27.0945
-149.498 -4.737 29.0061
-115.785 30.7279 31.8518
-125.938 31.7869 -25.4529
-20.0701 -28.4659 52.3486
-87.3652 -43.8079 -27.3207
-92.0141 -43.0501 -26.6487
150.599 -23.7756 16.0645
153.382 -22.3206 14.885
-102.948 24.4242 -41.3031
45.5445 -4.63711 -57.6589
-105.637 22.051 -41.8041
-118.651 34.0927 -26.7236
-121.961 34.1923 -24.695
-91.1676 36.2556 35.6087
132.675 -22.8329 -30.3914
-88.4966 38.112 34.4771
-126.707 29.2677 -27.8906
74.4347 -53.2204 9.44873
50.4765 -33.3437 -46.6505
54.3532 -33.6294 -45.9063
82.2239 33.4997 -40.621
-121.347 40.6531 12.0236
-119.951 40.0154 15.4035
83.0243 28.5659 -44.0466
84.5194 30.9665 -42.0299
49.0612 10.0448 -56.6076
-72.5758 -50.5239 20.0619
-68.8122 -50.1329 22.5165
-28.7637 15.9492 -56.959
-146.651 -29.7201 9.15136
-132.924 15.4463 -34.616
-31.1651 -35.8763 46.84
-130.629 12.2432 -36.8922
-130.785 18.8996 -33.8929
-140.815 -15.1032 -30.7297
42.5126 2.16076 -58.0867
-141.874 -11.7112 -31.6009
-4.34248 4.70978 59.7956
83.0668 -35.9805 -38.2184
-116.992 14.1528 41.5215
-103.148 -28.2068 -38.7532
-99.8307 -29.9789 -38.4856
88.5992 -32.6158 -39.6886
86.8056 -35.1565 -37.9672
-149.064 -7.35833 -28.7319
44.1714 -24.5008 -52.5437
47.4349 -23.8 -52.5175
-144.491 -1.11806 -32.2922
-145.695 -7.28481 -30.7925
-143.692 -5.00367 -32.3603
-130.532 27.1201 -27.9021
80.5394 -49.1813 -19.6739
-1.37535 57.0914 -18.4482
-5.99749 56.7135 -19.4724
80.7378 -47.389 -23.5846
83.9105 -46.0915 -24.7704
-139.155 -34.5877 -5.746
-135.154 -36.2797 -6.88895
107.348 -38.8737 -26.0392
102.451 -37.4436 -30.2154
-130.546 4.87447 38.5981
-131.054 1.57872 38.6628
103.319 -39.1317 -27.6011
-56.1766 18.4805 53.5921
8.04521 1.50493 59.915
169.015 -8.6838 -5.22738
169.247 -6.03791 -7.52983
-52.0455 18.8191 53.9835
103.075 47.9386 -1.08543
109.877 46.0647 -0.0124956
106.829 46.8732 -2.38952
108.687 -22.9878 -40.3156
104.725 -23.5367 -41.2715
-7.85173 5.87652 59.6483
103.342 -20.5896 -43.2275
-57.3127 39.7132 40.2582
-54.9964 43.994 35.9755
-46.7103 45.0367 36.1189
-47.7498 47.1301 33.1604
-152.427 -25.8348 9.38652
-149.955 -28.2347 7.05996
95.0415 47.0222 -16.824
90.916 48.3275 -15.8905
48.6396 -57.5039 -1.91323
52.0364 -57.1699 -0.31671
93.7789 -43.9336 -24.3548
96.3763 -41.8456 -26.6795
-117.511 -41.3002 14.273
97.3229 47.3476 -14.0928
-71.4452 47.9913 25.9214
-84.1806 47.1804 22.5044
-79.1641 46.0024 26.7681
-75.2491 47.8864 24.7722
19.2292 1.52642 59.602
-105.802 37.5319 -28.6513
-102.207 38.0401 -29.5642
-33.1212 -37.6153 -45.2856
-33.5961 11.6135 -57.6797
-29.8692 12.2807 -57.7924
145.828 13.1486 28.6989
145.313 16.7702 27.0856
-30.5505 -40.1065 -43.3267
-31.3493 -42.7961 -40.5977
60.7923 -54.777 12.1255
57.6778 -55.8034 8.87138
-124.388 39.8659 10.7932
-158.082 3.74595 -22.9463
-142.073 6.17695 33.0255
-158.724 6.66778 -21.7077
-105.244 44.7872 15.4296
-113.876 43.496 -10.978
-116.599 41.9485 -13.2626
-100.109 45.0428 18.5532
-101.25 45.8649 15.5352
57.8199 -12.1022 55.1747
54.9593 -10.6291 55.8321
-144.707 -28.5828 -14.8116
-140.97 -30.2683 -15.8399
3.01305 13.3196 58.4934
-0.114628 15.682 57.9144
-67.9063 44.0881 -33.0408
-71.5188 43.4575 -32.943
49.5392 0.807149 -57.436
46.0387 -0.654487 -57.7934
-74.206 44.4717 -30.7916
-74.0667 -53.9617 -4.06438
-153.406 -21.5371 -15.9695
-150.386 -24.4397 -15.2935
24.1254 -51.6385 29.3633
22.1566 -48.1251 34.9839
-105.834 -37.3751 -28.8412
135.776 -35.1891 -10.2365
132.974 -36.8314 -8.871
-142.859 -16.9067 -28.5588
-17.5268 25.5854 53.9238
-15.3476 28.5325 52.5077
21.1772 -50.4148 31.6772
-110.325 45.5984 5.53805
-106.334 46.9307 3.63785
-135.522 -7.70329 35.9464
52.9293 15.9887 54.7849
-133.365 -4.71168 37.4205
-133.6 -0.836032 37.6048
-54.5185 -12.404 55.5181
-57.8568 -10.9679 55.4066
[...]
POINT_DATA 4978
VECTORS F double
-2.53823e-07 1.20014e-07 -5.68026e-08
2.08339e-07 1.62264e-07 3.72293e-08
2.37732e-07 1.58634e-07 3.66799e-08
2.70363e-07 1.44942e-07 5.18204e-08
2.66228e-07 1.40004e-07 4.27521e-08
-3.2561e-07 6.39544e-08 -2.90565e-08
-3.33265e-07 6.14619e-08 -2.50103e-08
3.61494e-07 1.12381e-07 6.00347e-08
3.36342e-07 1.23109e-07 7.13546e-08
-1.05278e-07 1.79498e-07 -2.95562e-08
-1.48354e-07 5.47184e-08 5.20647e-09
-7.34233e-08 1.88818e-07 -2.58504e-08
-2.11664e-07 1.43637e-07 -5.81765e-08
-8.27945e-08 3.4673e-08 -5.50058e-11
-9.1217e-08 2.49138e-08 -2.43652e-09
-2.11475e-07 1.39229e-07 -6.00872e-08
3.74248e-07 1.20834e-07 1.04582e-07
4.1072e-07 1.13811e-07 1.05721e-07
-9.38619e-08 -8.73706e-08 7.18813e-10
2.54618e-07 1.43621e-07 -2.27628e-09
1.54884e-07 1.82962e-07 7.17955e-08
1.57098e-07 2.03656e-07 8.52833e-08
2.53309e-07 1.45652e-07 -3.06776e-09
-1.46776e-07 1.75386e-07 -3.71854e-08
1.44143e-07 2.17963e-07 1.71734e-08
4.34873e-08 2.38061e-07 9.75452e-09
-3.69044e-08 1.52611e-07 2.79426e-08
-3.9113e-08 1.56126e-07 2.80837e-08
1.29639e-08 2.29266e-07 1.49528e-08
-1.80755e-07 -7.06614e-09 -1.00274e-09
-3.55091e-07 4.33443e-10 -2.60893e-08
-3.55491e-07 1.74512e-09 -2.42344e-08
-1.31641e-07 -1.15525e-07 -1.89824e-08
-1.34373e-07 -1.1528e-07 -2.35617e-08
3.90072e-08 1.85234e-07 7.98285e-09
-2.10458e-07 -9.52784e-08 -2.51723e-08
-1.77223e-07 1.54433e-07 -4.18361e-08
-1.7656e-07 1.56017e-07 -3.55094e-08
1.18872e-07 1.13039e-07 7.52783e-08
2.90759e-07 1.23434e-07 -1.29482e-08
3.94309e-07 8.9924e-08 1.45992e-08
3.84045e-07 9.56341e-08 2.9191e-09
2.83749e-07 1.188e-07 -4.57286e-09
1.64053e-07 -9.53064e-08 -5.74056e-09
-6.81423e-08 2.09378e-07 -1.57798e-08
-8.88068e-08 1.91122e-07 -2.12521e-08
3.20969e-07 1.09447e-07 2.80516e-09
-2.61403e-07 1.07954e-07 -3.13132e-08
-2.61277e-07 1.01893e-07 -3.41467e-08
-3.02116e-07 -3.2018e-08 -2.07853e-08
-3.04835e-07 -2.89435e-08 -2.21899e-08
-4.37533e-08 6.34449e-08 1.24017e-08
-4.06865e-08 5.65287e-08 1.14102e-08
-3.67241e-08 9.14528e-08 1.95461e-08
4.35195e-07 8.38125e-08 -1.45307e-08
4.23445e-07 8.10694e-08 -4.14513e-10
3.28699e-07 1.1254e-07 -8.10882e-09
-1.72592e-07 1.70931e-07 -5.55125e-08
-1.83636e-07 1.55161e-07 -5.40368e-08
-9.41189e-08 1.8537e-07 -3.22977e-08
3.46492e-08 1.80995e-07 1.46366e-08
-1.05283e-08 1.81658e-07 1.84594e-08
-1.72589e-07 5.17295e-09 1.17959e-09
-2.183e-07 1.43923e-07 -5.81352e-08
1.51312e-07 1.82331e-07 -6.10732e-09
-2.2621e-07 1.38739e-07 -6.35003e-08
-2.62168e-07 -4.07883e-08 -9.97479e-09
-2.60217e-07 -4.15825e-08 -1.20888e-08
6.44705e-08 -1.28728e-07 3.25903e-08
5.13161e-08 -1.39258e-07 2.93875e-08
-3.01352e-07 -2.01684e-08 -2.12571e-08
-2.9849e-07 -2.33667e-08 -1.99515e-08
1.96469e-07 -7.56968e-08 1.36881e-09
1.82316e-07 -7.64113e-08 -5.81732e-09
3.22001e-08 -1.63743e-07 1.1352e-08
2.2254e-08 -1.69856e-07 4.01262e-09
7.04473e-08 5.00873e-08 -2.50214e-08
5.56289e-08 5.95923e-08 -2.58348e-08
-2.70648e-07 -5.69273e-08 -3.12263e-08
-2.69044e-07 -5.72753e-08 -2.91665e-08
-1.56823e-07 -1.11549e-07 -2.31911e-08
-2.8886e-07 -5.25992e-08 -3.20205e-08
-2.4118e-07 1.29447e-07 -6.34664e-08
2.31271e-07 1.71801e-07 1.05108e-07
2.31456e-07 1.65327e-07 8.92346e-08
-2.93959e-07 8.55886e-08 -4.06509e-08
-7.55234e-08 -4.28293e-08 -7.56234e-09
-2.94803e-07 8.80438e-08 -3.60003e-08
-1.33774e-07 -1.15317e-07 -2.44163e-08
3.79238e-07 1.02305e-07 4.19829e-08
3.95245e-07 9.51071e-08 4.39718e-08
3.89297e-07 9.65122e-08 3.18542e-08
-2.35606e-07 1.15693e-07 4.75429e-08
-2.18611e-07 1.17115e-07 4.34469e-08
-1.98335e-07 -9.48796e-08 -2.63329e-08
-1.82314e-07 -1.04535e-07 -3.04467e-08
-1.675e-07 -1.01911e-07 -2.41218e-08
3.17238e-07 1.37194e-07 -8.38617e-08
-3.07621e-07 7.43515e-08 2.28522e-08
-2.93873e-07 7.72935e-08 2.70652e-08
2.43233e-07 1.69294e-07 1.60952e-08
2.54267e-07 1.58993e-07 2.22237e-08
3.45653e-07 1.30075e-07 -8.20215e-08
3.48255e-07 1.36705e-07 -9.44598e-08
4.33645e-07 8.33164e-08 4.04995e-08
4.39214e-07 8.14256e-08 5.2073e-08
-1.95997e-07 1.54674e-07 1.00541e-08
-1.90912e-07 1.54082e-07 1.24494e-08
-1.74513e-07 1.66533e-07 1.99224e-08
-2.6028e-07 1.15498e-07 -5.79706e-08
1.69038e-07 3.92997e-08 4.21983e-08
1.7328e-07 2.53506e-08 3.22132e-08
-3.03437e-07 7.94089e-08 -1.04736e-08
-2.4275e-07 1.28807e-07 -5.93152e-08
1.15716e-07 1.71648e-07 -6.51119e-09
1.06893e-07 1.65697e-07 3.3906e-10
7.58482e-08 1.73532e-07 1.64534e-09
-1.09839e-07 1.85556e-07 -2.95113e-08
2.9803e-07 1.42427e-07 -6.02976e-08
3.1147e-07 1.48524e-07 -7.25584e-08
3.1341e-07 1.34932e-07 -5.00375e-08
2.84432e-07 1.5133e-07 -5.7428e-08
-2.08874e-07 -9.41229e-08 -2.519e-08
-2.20629e-07 -9.19982e-08 -2.51563e-08
-2.23677e-07 -8.74632e-08 -2.59354e-08
-3.37724e-07 5.30237e-08 5.88704e-09
-2.35281e-07 1.34483e-07 -6.0904e-08
-1.04209e-08 -9.98839e-08 -1.27311e-08
-3.50926e-08 -1.03437e-07 -1.26059e-08
-2.34938e-07 1.29553e-07 -6.15335e-08
-2.54244e-07 1.1147e-07 -5.60219e-08
3.23632e-07 1.38681e-07 8.88578e-08
-2.56667e-07 1.1982e-07 -5.81851e-08
-1.95192e-07 1.25979e-07 4.41451e-08
-1.96589e-07 1.25367e-07 3.86937e-08
-2.57251e-07 1.05067e-07 4.5928e-08
-2.04867e-07 1.2195e-07 4.28612e-08
-2.3219e-07 -1.82413e-08 -1.22245e-08
-2.10213e-07 -1.82377e-08 -1.12658e-08
2.52506e-07 1.56917e-07 -6.45921e-08
-2.18327e-07 -2.43114e-08 -8.74251e-09
-2.45427e-07 1.13218e-07 -2.90746e-08
-2.58257e-07 1.08359e-07 -2.15351e-08
-2.58249e-07 1.0372e-07 -2.7119e-08
-3.97329e-08 1.82895e-07 -1.08499e-08
-3.75335e-08 1.89592e-07 -1.51342e-08
-3.06034e-08 1.90376e-07 -7.92519e-09
-1.70559e-07 1.50464e-07 2.90306e-08
-1.40954e-07 1.57317e-07 3.46215e-08
-1.38958e-07 1.64953e-07 2.80193e-08
-1.42473e-07 1.62441e-07 2.70011e-08
-1.86136e-07 1.52565e-07 -2.95409e-08
-2.79131e-07 8.61186e-09 -2.20146e-08
-2.77755e-07 4.79238e-09 -2.24458e-08
1.66136e-08 -1.49621e-07 8.87358e-09
-1.06718e-08 -1.55537e-07 6.98171e-09
-1.78574e-07 1.55787e-07 -2.83731e-08
8.34482e-09 1.89978e-07 -5.1426e-09
9.01062e-08 2.03568e-07 8.51069e-08
1.33166e-07 1.99805e-07 9.38814e-08
-2.81508e-08 1.91878e-07 -8.7342e-09
2.09796e-08 1.9978e-07 2.46259e-09
5.60314e-08 -1.03512e-07 3.7327e-08
9.34381e-08 -1.01924e-07 4.59416e-08
-2.72015e-07 1.09847e-07 -5.78848e-08
-2.70353e-07 1.10365e-07 -6.28633e-08
-2.45392e-07 -7.48924e-08 -3.04209e-08
-3.15253e-07 6.64068e-08 -1.1859e-08
-2.47828e-07 -7.55599e-08 -3.56812e-08
3.45228e-07 -4.46939e-08 -1.64522e-08
3.45543e-07 -4.47874e-08 -2.48066e-08
7.45405e-08 -1.13725e-07 4.55637e-08
3.7021e-07 1.02655e-07 2.07369e-08
3.70961e-07 1.02305e-07 3.01591e-08
3.78716e-07 1.00696e-07 3.15579e-08
-2.49089e-07 -4.88051e-08 -1.28433e-08
-2.47465e-07 -4.98805e-08 -1.28152e-08
-2.19341e-07 1.39243e-07 8.44607e-09
-5.07794e-08 -3.6339e-08 6.39668e-09
-3.30428e-07 1.39234e-08 -4.40121e-10
-3.21088e-07 1.46964e-08 5.96973e-10
-5.95425e-08 -2.57348e-08 4.13668e-09
1.37418e-07 1.71928e-07 -4.32289e-08
5.60917e-07 4.48423e-08 -5.4108e-08
5.71191e-07 3.80692e-08 -4.99439e-08
-8.07771e-08 -2.52131e-08 3.18538e-09
-2.60281e-07 9.19348e-08 1.8557e-08
-2.65002e-07 9.6756e-08 2.83046e-08
-2.36057e-07 1.06309e-07 2.89231e-08
-2.59173e-07 9.82807e-08 2.06363e-08
-2.43324e-07 1.0468e-07 2.96303e-08
3.54201e-07 8.11731e-08 -9.47755e-08
3.37455e-07 1.17844e-07 -3.37701e-08
-3.5699e-08 7.45254e-08 -1.52525e-08
3.52241e-07 8.21319e-08 -1.05894e-07
3.67897e-07 1.08523e-07 -3.19049e-08
3.46797e-07 1.08287e-07 -2.96885e-08
-2.97668e-07 7.16428e-08 -4.94565e-08
-2.98141e-07 7.81809e-08 -5.13406e-08
-3.42834e-07 9.44127e-09 -3.23451e-08
2.08681e-07 -6.25258e-08 -1.70441e-08
1.8922e-07 -6.06797e-08 -1.64998e-08
-1.68778e-07 -4.90264e-08 -6.80691e-09
-1.73411e-07 -5.54635e-08 -9.96139e-09
1.35051e-07 -7.16869e-08 -2.74395e-08
-2.80945e-07 8.71508e-08 -5.24513e-08
-2.04496e-07 -1.00106e-07 -2.53688e-08
-2.28762e-07 1.21326e-07 9.49762e-09
-2.98806e-07 7.05106e-08 2.9424e-08
-2.96409e-07 -4.94515e-08 -2.81721e-08
-2.96843e-07 -4.83552e-08 -3.00522e-08
-3.07369e-07 6.81697e-08 3.02608e-08
-3.28024e-07 5.48826e-08 1.03974e-08
-3.30594e-07 5.58426e-08 1.66894e-08
-3.17202e-07 6.24048e-08 -5.11198e-08
-3.12902e-07 6.46767e-08 -4.93131e-08
1.77874e-07 -5.63053e-08 -2.45072e-08
2.08291e-07 -6.17553e-08 -2.99167e-08
-2.23722e-07 1.29058e-07 5.37702e-09
-1.47648e-07 1.45456e-07 4.06975e-08
-4.06445e-08 1.7633e-07 2.45535e-08
-1.71032e-07 9.44877e-08 -1.74572e-08
-1.67032e-07 1.06715e-07 -1.61612e-08
-6.10314e-08 1.614e-07 2.80804e-08
-2.27634e-07 1.29258e-07 1.00747e-08
-1.28713e-07 1.88198e-07 -2.59918e-08
-1.19723e-07 1.89827e-07 -2.18977e-08
-2.40687e-07 -8.16118e-08 -2.66109e-08
-2.43762e-07 -7.75694e-08 -2.67643e-08
3.18143e-07 1.27954e-07 3.23893e-08
-5.19031e-08 -1.34404e-07 -5.36839e-09
-4.28905e-08 -1.27575e-07 4.13138e-10
3.03863e-07 1.34447e-07 2.41515e-08
-8.61324e-08 -1.10818e-07 -2.78252e-09
-8.59805e-08 -1.08665e-07 3.89061e-10
3.09658e-07 1.27333e-07 2.5198e-08
-1.55153e-07 -1.35507e-07 -2.19175e-08
-1.52911e-07 -1.3611e-07 -2.01031e-08
8.00636e-08 2.04462e-07 5.03201e-08
7.8535e-08 1.97028e-07 4.64304e-08
7.02394e-07 -2.77035e-08 -3.46304e-08
-4.59812e-09 1.96397e-07 1.52894e-08
-1.24603e-08 1.86648e-07 2.26201e-08
2.51013e-07 1.32129e-07 -1.5757e-08
2.48256e-07 1.5357e-07 4.14033e-08
-2.31248e-07 4.00352e-08 1.09161e-08
-2.74973e-07 1.03717e-07 -5.86585e-08
-2.7601e-07 1.05847e-07 -5.43174e-08
-1.48513e-07 -1.32233e-07 -2.52545e-08
-1.43782e-07 -1.34978e-07 -2.10149e-08
1.67542e-07 1.70588e-07 4.975e-08
-1.05472e-07 -3.43119e-08 -7.44026e-09
1.57236e-07 1.77241e-07 4.48482e-08
2.63366e-07 1.49079e-07 4.70304e-08
2.57353e-07 1.43092e-07 4.25186e-08
3.06789e-07 1.2556e-07 -3.1679e-08
-1.42594e-07 -9.21163e-08 -7.00473e-09
3.19338e-07 1.15755e-07 -2.76074e-08
2.17941e-07 1.57339e-07 4.3892e-08
-2.86925e-07 -5.46154e-08 -3.08996e-08
-2.27172e-07 -3.17469e-08 -7.40191e-09
-2.2406e-07 -2.96893e-08 -1.0729e-08
1.359e-07 -6.62119e-08 -2.09267e-08
3.24293e-07 1.17282e-07 4.14767e-09
3.21271e-07 1.15128e-07 7.20745e-09
1.03226e-07 -7.07292e-08 -2.20501e-08
1.23119e-07 -7.67838e-08 -2.62617e-08
-2.07795e-08 -4.5002e-08 -1.01904e-08
-3.15318e-07 6.37069e-08 2.07886e-08
-3.16113e-07 6.46563e-08 2.5685e-08
1.05386e-08 1.62081e-07 4.4733e-08
-2.12605e-07 1.34335e-07 1.91654e-08
1.16392e-07 1.88726e-07 2.94947e-08
-2.63376e-07 5.4563e-08 2.0338e-08
9.46145e-08 1.77739e-07 1.797e-08
1.47198e-07 1.73777e-07 2.73632e-08
-1.10355e-07 1.76756e-07 -2.49642e-08
-7.54826e-08 -2.91591e-08 -7.84825e-09
-8.30321e-08 1.87385e-07 -2.38068e-08
-7.21761e-08 3.20846e-08 -3.16879e-09
-2.15136e-07 -5.35967e-08 -6.7877e-09
1.22836e-07 1.66218e-07 -1.42836e-08
-1.87398e-07 1.58799e-07 -5.45178e-08
-1.88865e-07 1.51321e-07 -5.78962e-08
-1.96374e-07 -5.92544e-08 -4.9744e-09
-2.12902e-07 -5.34877e-08 -1.00653e-08
-5.46206e-08 1.89317e-07 -1.37926e-08
-1.92948e-07 -2.63071e-08 -7.59133e-09
-1.91006e-07 -2.72385e-08 -8.77728e-09
-1.90635e-09 2.01263e-07 -5.92484e-09
-5.31055e-08 1.94881e-07 -1.5343e-08
-3.89328e-08 1.91242e-07 -8.40667e-09
2.11527e-07 1.65288e-07 3.95051e-08
-2.72679e-07 -4.83029e-08 -1.59128e-08
5.2322e-07 4.28522e-08 1.27838e-07
5.25427e-07 4.21856e-08 1.03053e-07
-2.63091e-07 -4.67199e-08 -1.6388e-08
-2.58769e-07 -5.03686e-08 -1.35947e-08
-2.41681e-07 1.20834e-07 -1.07966e-08
-2.4312e-07 1.14376e-07 -1.8402e-08
-2.18471e-07 -6.35395e-08 -1.54074e-08
-2.11132e-07 -6.00495e-08 -1.32287e-08
6.97732e-08 1.6714e-07 7.78356e-09
3.85442e-08 1.70195e-07 9.04596e-09
-2.22166e-07 -6.44925e-08 -1.03797e-08
1.02893e-07 1.6613e-07 -4.40829e-08
-8.67062e-08 -1.41985e-08 1.78216e-09
-7.45815e-08 -1.71189e-07 -1.0867e-08
-5.32078e-08 -1.69921e-07 -1.0179e-08
1.04968e-07 1.81258e-07 -5.07981e-08
2.33373e-07 -6.08874e-08 2.4044e-08
2.25122e-07 -6.57328e-08 2.5982e-08
2.31349e-07 -6.37465e-08 1.57895e-08
-1.4623e-07 -6.80203e-08 -9.47872e-09
-1.48629e-07 -7.37685e-08 -4.10287e-09
-6.84709e-08 4.72442e-08 -5.75785e-09
-1.35451e-07 -6.79347e-08 -7.28602e-09
3.28749e-07 1.44229e-07 -8.49785e-08
3.7262e-07 1.3102e-07 -9.04845e-08
3.805e-07 1.13722e-07 -8.15562e-08
4.01471e-07 1.14099e-07 -9.13909e-08
-1.95757e-07 1.48991e-07 2.08936e-08
-2.08981e-07 1.38875e-07 1.19728e-08
2.30139e-07 -5.99401e-08 -8.36405e-09
2.30907e-07 -5.49847e-08 -5.48539e-09
-3.18653e-07 -3.21211e-08 -2.63574e-08
-3.15504e-07 -3.49982e-08 -2.88198e-08
-2.46108e-07 -5.50836e-08 -1.6652e-08
-2.34951e-07 -5.94798e-08 -1.0616e-08
-2.56647e-07 9.5505e-08 1.76647e-08
2.26023e-07 -5.77766e-08 -3.01976e-09
4.10559e-07 1.00977e-07 -4.8414e-08
3.83616e-07 9.58934e-08 -2.53622e-08
3.89221e-07 1.04693e-07 -3.8997e-08
4.02831e-07 9.30135e-08 -2.99929e-08
-8.21028e-08 -4.69389e-08 4.44513e-09
2.80834e-07 1.35949e-07 5.11232e-08
2.85778e-07 1.44797e-07 6.53546e-08
-2.72234e-07 8.84636e-08 -4.91041e-08
-1.79891e-08 1.74014e-07 3.63195e-08
-1.58879e-08 1.69931e-07 3.7115e-08
6.48271e-08 -1.39447e-07 2.35612e-08
9.1697e-08 -1.34072e-07 2.27848e-08
-2.83069e-07 7.61917e-08 -4.60931e-08
-2.95539e-07 7.31019e-08 -4.91213e-08
-2.99069e-07 -4.75471e-08 -3.12257e-08
-3.06041e-07 -4.31893e-08 -2.80737e-08
3.18128e-07 1.18368e-07 1.16491e-08
3.43999e-08 2.12665e-07 5.7025e-09
7.82719e-08 1.75546e-07 8.39097e-09
6.25872e-08 2.18387e-07 1.10525e-08
3.60954e-07 1.03112e-07 2.11949e-09
3.35055e-07 1.1589e-07 3.36682e-08
3.20392e-07 1.22593e-07 4.29067e-08
3.62951e-07 1.00206e-07 -3.51747e-09
3.63738e-07 9.99918e-08 -4.97773e-09
-1.10673e-07 -1.02357e-07 -8.25218e-09
-1.12603e-07 -1.03046e-07 -6.04725e-09
-2.08853e-07 1.40965e-07 -2.22218e-08
-2.10611e-07 1.36055e-07 -3.05157e-08
-2.37396e-08 1.11045e-08 -2.3788e-09
-1.09963e-08 2.93559e-08 -7.95148e-09
3.3504e-07 1.39215e-07 1.01461e-07
3.32954e-07 1.29393e-07 8.21967e-08
-7.52322e-08 -3.97302e-08 -8.5025e-09
-7.87638e-08 -3.59065e-08 -7.27508e-09
3.32945e-07 1.28105e-07 8.67862e-08
-3.35846e-07 5.7674e-08 -1.64448e-08
-1.72082e-07 1.68195e-07 -2.44584e-08
-1.84017e-07 1.5179e-07 -2.10364e-08
-3.06501e-07 -3.13139e-08 -2.42384e-08
-2.93927e-07 -3.27557e-08 -2.22693e-08
-2.32706e-07 1.25619e-07 -5.82458e-08
-2.06561e-07 -9.36601e-08 -1.34588e-08
-2.12799e-07 -8.97632e-08 -1.78298e-08
-1.20262e-07 1.75872e-07 -3.04664e-08
8.56719e-08 1.13055e-07 -5.02321e-08
9.94127e-08 1.04349e-07 -5.31451e-08
-3.06782e-07 -2.99823e-08 -2.26082e-08
3.62627e-07 1.06221e-07 9.8274e-09
3.7358e-07 1.01866e-07 2.27354e-08
-3.39117e-08 1.77482e-07 2.23825e-08
2.96778e-08 -1.17795e-07 3.08675e-08
-1.01724e-08 1.67011e-07 1.65907e-08
3.04845e-08 1.71787e-07 1.70788e-08
-1.19877e-07 1.41129e-07 1.71197e-08
-1.15596e-07 1.55912e-07 1.60857e-08
1.49398e-07 -1.10192e-07 5.57107e-08
1.41499e-07 -1.19805e-07 5.60394e-08
1.40207e-07 -1.11528e-07 5.36931e-08
-2.82192e-07 1.01267e-07 -5.57833e-08
-2.78672e-07 9.54928e-08 -4.8808e-08
-2.76853e-07 1.04474e-07 -5.23738e-08
-9.27801e-08 1.58669e-07 2.96467e-08
-9.10114e-08 1.69029e-07 3.54965e-08
-1.60776e-07 -7.77562e-08 -1.22347e-08
-1.37367e-07 -8.92947e-08 -1.1968e-08
-6.09815e-08 1.6982e-07 2.88836e-08
2.35917e-08 -1.42853e-07 1.02237e-08
3.19589e-08 -1.45647e-07 1.58551e-08
-2.84476e-08 1.45771e-07 -1.93798e-08
2.40674e-08 -1.44021e-07 1.60441e-08
3.64103e-08 -1.48083e-07 -1.84544e-08
2.66314e-08 -1.56376e-07 -1.27924e-08
-2.59395e-07 1.1853e-07 -6.31577e-08
2.7848e-07 1.23823e-07 -1.7934e-08
-1.66193e-07 1.76528e-07 -4.77124e-08
-1.65591e-07 1.66777e-07 -4.61759e-08
-1.45608e-07 1.84686e-07 -4.45416e-08
9.44866e-08 -1.24498e-07 -1.80794e-08
9.32817e-08 -1.25897e-07 -1.90072e-08
9.87783e-08 -1.17409e-07 -2.09906e-08
-2.78553e-07 -4.50956e-08 -2.02733e-08
-4.32163e-08 1.63442e-07 2.06565e-08
-2.1547e-08 1.77936e-07 1.60117e-08
3.18793e-07 1.36818e-07 1.04107e-07
1.38035e-08 1.78372e-07 4.46057e-09
1.20239e-08 1.69296e-07 1.22775e-08
2.20056e-07 -1.98258e-08 1.02163e-08
2.08813e-07 -3.83236e-08 2.63305e-08
-8.68012e-08 -3.7745e-08 3.0811e-09
2.21472e-07 -4.77857e-08 3.66318e-08
-2.00403e-07 1.3192e-07 4.64526e-08
-1.99178e-07 1.29841e-07 4.82038e-08
5.57701e-08 1.66023e-07 1.41771e-09
-1.24766e-07 2.07118e-07 -9.96763e-09
-2.69315e-07 9.70634e-08 6.50181e-09
-2.69065e-07 9.17699e-08 8.30104e-09
6.32169e-08 -6.90962e-08 -2.06111e-08
3.60555e-07 1.14522e-07 6.61627e-08
3.64634e-07 1.09924e-07 6.98128e-08
-9.90875e-08 2.09247e-07 -1.17973e-08
4.6092e-07 7.14624e-08 3.81842e-08
9.28299e-08 1.98033e-07 5.88513e-08
1.28047e-07 2.00584e-07 6.70564e-08
4.56606e-07 7.53082e-08 3.40085e-08
1.02187e-07 -7.33454e-08 -2.19098e-08
-2.85468e-07 -3.62352e-08 -1.80513e-08
-2.8772e-07 -3.4443e-08 -1.63541e-08
-3.24101e-07 -3.03821e-08 -2.75151e-08
-2.82921e-07 -3.76905e-08 -1.86974e-08
2.05538e-07 1.64424e-07 7.78368e-08
-2.32726e-07 1.21342e-07 1.62655e-08
2.98904e-08 1.20567e-07 -3.93909e-08
1.425e-08 1.26035e-07 -3.50555e-08
2.57566e-07 1.52324e-07 8.65666e-08
2.59852e-07 1.67038e-07 1.03855e-07
2.78012e-07 1.45406e-07 1.0523e-08
2.70187e-07 1.54528e-07 8.73849e-09
2.42815e-07 1.63663e-07 8.75561e-08
4.10695e-07 9.49212e-08 6.93848e-08
4.07751e-07 9.66729e-08 6.04843e-08
4.22606e-07 1.02e-07 7.90633e-08
-3.55052e-07 1.03444e-08 -2.95667e-08
-3.53793e-07 3.77537e-09 -2.82776e-08
-3.53626e-07 7.62704e-09 -3.02146e-08
2.42746e-07 -6.00408e-08 3.11318e-08
3.69398e-07 1.17379e-07 -5.45915e-08
3.6272e-07 1.05579e-07 -3.44829e-08
3.53253e-07 1.14164e-07 -3.69844e-08
-2.76674e-07 8.56557e-08 3.73162e-08
2.2503e-07 1.43998e-07 -2.4018e-09
2.28521e-07 1.48353e-07 -7.54606e-09
3.64248e-07 1.1318e-07 7.21026e-08
3.84543e-07 1.02181e-07 5.61588e-08
4.26743e-07 9.34068e-08 -5.7836e-08
-2.55314e-07 -6.47558e-08 -1.99177e-08
-2.6296e-07 -6.51589e-08 -2.23266e-08
-2.69325e-07 -5.9627e-08 -2.17785e-08
-2.65658e-07 -6.15905e-08 -2.30128e-08
4.3423e-07 1.00091e-07 -6.95114e-08
-2.23686e-07 1.2058e-07 2.60501e-08
-1.9365e-07 1.37613e-07 3.4455e-08
-1.9731e-07 1.28431e-07 3.2817e-08
-2.1597e-07 1.2243e-07 2.58886e-08
-9.52965e-08 1.84223e-07 -3.24538e-08
-9.46983e-08 1.87237e-07 -2.66009e-08
1.97539e-07 1.875e-07 2.82586e-08
1.85473e-07 1.96632e-07 2.05069e-08
-2.36347e-07 -3.98667e-08 -1.07826e-08
-2.45652e-07 -4.41187e-08 -7.50975e-09
5.1753e-07 6.27868e-08 -7.45609e-08
5.17573e-07 6.32644e-08 -5.81331e-08
2.33405e-07 1.32292e-07 -1.77911e-08
2.22003e-07 1.4485e-07 -1.88327e-08
-2.06035e-07 1.33701e-07 2.9229e-08
-2.21788e-07 1.22293e-07 1.79986e-08
-1.74767e-07 4.22692e-08 -1.30647e-08
4.3543e-07 1.00585e-07 9.19532e-08
4.51626e-07 8.80489e-08 7.69362e-08
4.53113e-07 8.76695e-08 8.93997e-08
4.59335e-07 9.1322e-08 9.3207e-08
7.25046e-08 1.70816e-07 -6.09015e-10
-3.0154e-07 -4.62349e-08 -3.25272e-08
-2.99511e-07 -4.81942e-08 -2.94925e-08
1.02067e-07 1.62098e-07 -4.78253e-10
5.14589e-08 1.96863e-07 3.32141e-09
1.83392e-08 1.90654e-07 -6.57332e-10
-1.4977e-07 1.61349e-07 -3.14211e-08
-1.38082e-07 1.77079e-07 -2.98603e-08
-1.38386e-07 1.72514e-07 -2.24741e-08
-2.21322e-07 1.32997e-07 -5.30986e-08
-2.2048e-07 1.38728e-07 -6.39131e-08
-1.97303e-07 1.44111e-07 -5.73712e-08
-1.16974e-07 1.7794e-07 -3.91109e-08
-1.24457e-07 1.66657e-07 -3.75547e-08
-1.8864e-07 -7.64422e-08 -1.10857e-08
-1.92163e-07 -7.74072e-08 -6.95025e-09
-1.94781e-07 -3.55708e-08 -7.19614e-09
-1.94164e-07 -3.82486e-08 -6.54321e-09
-1.19047e-07 1.73108e-07 -3.14871e-08
1.44185e-07 2.10367e-07 9.75749e-08
1.40927e-07 2.0734e-07 8.79504e-08
1.49963e-07 2.01166e-07 8.20132e-08
1.5268e-07 2.03988e-07 2.0312e-08
1.07118e-07 2.13298e-07 1.56569e-08
1.26432e-07 2.17553e-07 2.15055e-08
-1.54548e-07 1.83392e-07 -1.60997e-08
-1.47051e-07 1.88732e-07 -7.15568e-09
2.00301e-08 -1.78087e-07 1.1727e-09
-1.30978e-07 1.74119e-07 -4.33743e-08
-1.28714e-07 1.82216e-07 -3.88284e-08
3.37388e-08 -1.72076e-07 7.91336e-09
-8.74845e-09 -1.78041e-07 -5.96222e-10
2.82597e-07 1.30637e-07 -2.85335e-08
-3.00304e-08 -1.12785e-07 1.32764e-08
-2.27485e-07 1.28489e-07 -3.1837e-08
-2.27108e-07 1.25504e-07 -3.97515e-08
-2.46613e-07 1.17975e-07 -3.28799e-08
2.65656e-07 1.33951e-07 -2.08289e-08
3.57936e-07 1.09132e-07 6.01664e-08
-2.51446e-07 -1.39289e-08 -1.39121e-08
3.89273e-07 9.81926e-08 4.9671e-08
3.82655e-07 1.04522e-07 5.45578e-08
7.17549e-08 -2.874e-08 -8.09559e-09
8.75638e-08 -4.38007e-08 -1.58213e-08
-2.26748e-07 1.24466e-07 -4.64836e-08