# vtk DataFile Version 2.0
S, Created by Mohamad Ibrahim Cheikh
ASCII
DATASET UNSTRUCTURED_GRID
POINTS 4978 double
-112.503 -35.016 -28.7113
-125.515 32.4971 -24.8035
-123.981 35.118 -22.02
-98.0104 40.2689 -28.3264
-101.678 39.5977 -27.6824
-87.7735 -50.398 -10.8095
-87.2731 -51.1714 -7.0013
-74.1411 50.089 -20.4482
-77.2228 48.5163 -22.7177
-119.563 -8.5007 -42.1616
-20.3118 -7.44307 59.1108
-119.199 -4.43325 -42.9051
-111.048 -27.2653 -36.7
11.9393 6.25745 -59.5264
13.6386 3.18074 -59.7253
-108.042 -28.4552 -36.8946
-41.9482 51.2999 -27.4389
-40.5208 53.1435 -23.9739
35.182 -6.06486 58.4096
-128.261 34.732 19.4846
-60.0327 32.2255 -46.0468
-56.5229 33.3515 -45.788
-130.925 34.9018 16.8318
-77.8259 -11.2986 -52.2572
-157.967 21.2466 -9.67463
-166.094 11.2497 9.79916
-22.6623 17.4934 -56.8428
-26.1096 17.0969 -56.7824
-166.25 8.04266 12.3114
-2.47671 -16.5883 57.6548
-13.6876 -59.8068 0.453703
-16.7524 -59.6365 3.02139
112.388 -26.3071 36.8994
108.637 -27.7343 37.2281
-140.872 8.26853 33.1977
114.209 -41.0243 17.8913
-140.051 -20.4609 -27.9292
-143.449 -19.2535 -26.6469
1.64255 39.3906 -45.2554
-103.806 39.5786 26.7262
-80.3481 52.2073 9.16722
-84.6159 51.092 10.6327
-108.137 39.2814 25.0074
149.222 27.2626 -11.4308
-156.746 -0.536071 -24.3266
-154.995 -4.6038 -25.2523
-102.653 43.9468 19.4575
-129.992 -36.3152 -14.5752
-126.004 -37.978 -14.6254
46.0473 -54.5232 -19.1737
41.8408 -55.2181 -18.3477
3.44121 15.6863 -57.9007
7.44182 15.9915 -57.771
-4.13506 17.4003 -57.4033
-61.9286 54.1664 14.017
-65.4499 54.0719 12.3204
-98.6318 44.4839 20.741
-91.6891 -18.6352 -47.154
-89.5611 -21.5326 -46.4149
-97.3296 -7.20938 -48.8699
-143.909 6.73015 31.9261
-140.046 1.49875 34.5922
-5.62156 -13.2217 58.492
-97.2019 -26.9454 -41.4395
-144.19 21.9482 23.9363
-99.5162 -29.6621 -38.8293
58.0197 -46.5977 -31.8831
61.615 -46.8284 -30.6972
109.203 13.1138 44.3628
110.742 9.40087 44.8354
32.7487 -52.5143 -26.6637
36.829 -51.6908 -27.6044
132.714 36.8656 -9.19976
133.674 35.1888 -13.1961
162.932 -0.647785 18.6962
164.867 -3.04031 16.2188
2.78176 31.1951 51.2437
-0.132116 28.7026 52.6892
39.2868 -48.2699 32.8794
42.7211 -48.2981 32.3087
113.855 -31.1104 32.3287
50.7919 -54.2713 18.4062
-87.9223 -31.7797 -40.542
-51.7927 41.6219 -39.2327
-56.0972 39.9872 -40.1965
-105.345 -44.397 -16.4397
51.0202 -3.19527 -57.1936
-109.092 -43.5835 -15.6039
115.489 -28.3285 34.1264
-85.5597 51.6078 -6.35709
-77.7634 53.1842 -5.57796
-81.7742 52.5118 -4.88284
-81.7181 -31.032 42.6552
-80.3585 -28.4938 44.6938
96.4352 -38.4596 31.3421
99.6134 -35.9289 33.0802
98.8999 -33.1064 36.1454
-36.8645 43.0702 39.7314
-96.9505 -46.6694 16.4691
-97.0596 -45.1755 20.1456
-143.577 32.6993 -2.64588
-139.156 34.9001 -3.35545
-41.1428 45.2346 36.696
-36.7384 45.9027 36.4377
-61.5249 55.6391 -6.39305
-56.8626 56.1624 -7.0662
-162.274 -19.1871 2.83346
-161.419 -18.9665 7.09415
-163.237 -15.7114 9.53575
-86.6776 -34.9771 -38.1682
20.7669 43.3077 -40.8857
25.4227 42.9951 -40.8937
-111.865 -45.4693 -0.731374
-92.0268 -31.5011 -39.6341
-129.147 17.7917 35.2349
-127.373 15.5298 37.0485
-129.426 12.2506 37.4053
-139.543 -8.36989 -33.853
-55.4957 39.0002 41.2545
-57.8231 41.3934 38.4351
-62.3407 39.7433 39.3024
-65.5711 37.6152 40.7274
117.476 -41.2111 14.5635
116.414 -42.7276 10.7326
112.52 -44.0306 10.5491
-78.7071 -52.2761 10.4309
-108.841 -31.0384 -34.443
125.723 -0.311749 -40.8017
125.14 -4.20418 -40.806
-105.627 -32.1565 -34.6413
-107.668 -36.8971 -28.6248
-64.7382 47.1022 -29.4667
-105.327 -35.1704 -31.6998
-111.613 -28.0521 35.8879
-115.476 -27.378 34.8987
-85.0964 -35.1968 38.4011
-118.008 -29.8031 31.7311
33.7723 -33.3697 -48.444
34.8726 -28.2045 -51.5327
-58.3431 36.2419 43.2411
36.2237 -30.9865 -49.7915
-136.72 -33.6061 -13.4983
-135.492 -35.4205 -9.89334
-131.876 -36.8346 -10.6794
-125.905 0.879161 -40.725
-121.914 0.5588 -42.1908
-118.918 2.76567 -43.14
-150.875 -19.2224 21.0634
-150.593 -15.9283 23.8718
-154.061 -13.5754 22.582
-157.155 -14.0435 19.4715
-151.849 -20.0147 -19.403
7.94757 -40.3226 -44.3436
12.5198 -41.26 -43.3407
151.992 -1.61582 27.7334
151.57 -5.46075 27.525
-149.847 -18.6221 -22.4554
-134.582 6.4408 -36.6208
-37.3726 31.7023 -49.2338
-35.734 34.5692 -47.4198
-136.276 2.77255 -36.3141
-136.001 9.23469 -35.3592
43.8047 20.0419 54.4372
45.6052 25.6172 51.8569
-93.1262 -37.666 -33.4594
-88.9113 -37.9088 -34.5704
73.9409 -46.8334 27.1532
-98.13 -49.2029 -0.405458
69.8421 -47.3497 27.5829
62.2027 50.8746 -23.1967
57.7261 51.3152 -23.6386
46.4576 22.07 53.373
-92.9569 50.4177 0.411345
-89.6435 50.9172 -4.86058
-89.0949 51.2572 -0.943067
73.0961 -44.8907 -30.5073
75.7188 -45.8587 -28.1969
-156.368 -24.4671 2.81504
14.0869 9.03411 59.1108
-29.4563 -51.1456 29.6294
-29.0844 -49.0948 32.9566
11.1004 7.49694 59.403
-69.6616 25.2655 48.6575
-3.27738 57.5072 17.0765
0.783343 57.9166 15.6712
10.0158 4.37562 59.7375
-120.179 -39.4276 16.6506
-117.777 -39.1706 19.1686
-123.006 -34.4379 23.6995
-123.283 -37.8448 17.5229
-124.525 -35.752 20.5768
6.20465 49.8393 33.3366
-77.2227 43.8477 30.7784
-11.7698 16.0292 57.6724
9.50687 50.9518 31.5096
-73.0307 47.1306 26.9396
-73.7809 45.3295 29.6444
-44.4541 -41.0098 -40.9422
-48.0523 -39.8785 -41.5574
-10.9998 -56.7306 -19.1526
101.006 41.7876 -24.592
99.7509 40.0364 -27.909
15.1299 -16.7242 57.3784
17.4652 -19.5065 56.4106
83.3439 30.5704 -42.6034
-48.3146 -36.6999 -44.3547
121.1 -39.5779 15.4334
-148.719 -29.3388 5.61033
-72.8293 -43.3243 32.7664
54.6243 -55.8543 10.7236
56.2925 -56.2984 6.52205
-74.1436 -45.434 29.3725
-79.2176 -51.1703 14.6054
-76.4324 -50.7728 17.5191
-46.499 -46.1051 -34.7795
-44.3907 -44.0294 -37.6851
64.9815 37.0861 -41.3239
67.1797 39.3587 -38.7088
-153.122 -26.9451 1.87081
-120.297 -20.006 37.79
-125.492 -3.35625 40.7521
-19.9225 -9.04192 -58.9037
-23.199 -6.66105 -59.074
-124.029 -7.33802 40.7778
-151.574 -27.4718 5.70963
-158.866 -8.99998 -20.7163
-156.365 -7.63357 -23.4181
103.844 -46.7475 9.72048
100.028 -47.8644 9.16817
-115.039 44.2537 -4.62719
119.565 -11.9422 41.3182
117.756 -9.04885 42.6673
-121.972 42.0388 -3.37534
52.9452 -9.61639 56.2525
49.8062 -7.53749 56.9165
-117.969 43.4583 -2.75557
151.005 -27.7056 6.38615
150.037 -27.4924 9.39226
-67.283 23.3254 -50.017
-71.391 22.5768 -49.662
49.5769 57.1132 6.09726
-151.84 3.9685 27.598
-148.822 1.38542 29.7754
-106.53 34.7609 31.659
-116.149 36.8946 -24.2317
-27.1795 -25.6449 53.4032
-95.0599 -39.7378 -30.2425
-99.7835 -38.9339 -29.414
144.746 -28.2195 15.4485
147.692 -26.8618 14.4204
-95.1423 30.2492 -39.7086
42.2742 -5.84494 -57.8537
-98.2899 28.074 -40.3621
-108.271 39.0363 -25.3179
-111.834 38.9732 -23.4504
-80.0521 39.8771 35.0039
127.588 -26.161 -30.3751
-76.9717 41.5081 33.9374
-117.808 34.5582 -26.582
64.054 -54.954 8.81761
42.604 -34.3801 -46.8593
46.5983 -34.6395 -46.1981
87.6035 30.445 -41.636
-109.633 44.4313 12.424
-108.401 43.6686 15.9515
87.1607 25.3253 -45.0395
89.3023 27.5012 -43.2128
48.8393 8.15835 -56.9335
-82.3898 -48.2502 20.9971
-78.6702 -47.7533 23.7049
-24.242 23.3109 -54.632
-152.987 -25.3698 9.53891
-127.221 21.9245 -33.7314
-39.2977 -32.8014 48.3218
-125.644 18.4441 -36.4299
-124.177 24.9052 -33.0444
-142.881 -8.64383 -32.0302
40.4207 1.13419 -58.2983
-142.934 -4.95896 -32.7755
-5.04792 8.09604 59.425
75.5456 -37.8981 -38.2756
-111.804 19.3947 41.1521
-107.287 -22.0237 -41.301
-104.01 -24.0934 -41.1714
81.7401 -34.7594 -39.6711
79.3759 -37.0577 -38.1494
-149.254 -0.596805 -29.536
37.5876 -25.2857 -52.7983
40.9453 -24.6693 -52.7843
-142.691 5.91121 -32.7469
-145.744 -0.36449 -31.6129
-143.236 1.84252 -32.937
-121.878 32.6769 -26.7145
70.8318 -50.8402 -20.026
20.9688 57.6722 -14.8353
16.034 57.4987 -16.1997
71.4242 -49.009 -23.9493
74.7454 -47.832 -25.0623
-146.291 -30.58 -6.69461
-142.271 -32.493 -8.13486
99.5967 -41.1326 -26.3382
95.0277 -39.5873 -30.4516
-127.159 10.1316 38.9588
-128.581 6.99367 39.0768
95.4386 -41.417 -27.7401
-50.3856 23.7316 52.2112
5.99983 3.20299 59.8777
165.627 -14.6037 -5.31776
166.629 -11.9864 -7.55861
-46.1539 24.5628 52.3056
111.52 45.5755 -0.547712
117.947 43.5472 0.712644
115.206 44.3921 -2.10694
103.65 -25.5092 -40.4228
99.5962 -26.2745 -41.1735
-8.34349 9.87906 59.1091
98.745 -23.1444 -43.2505
-44.6911 43.4138 38.35
-41.1127 47.2959 34.0024
-32.2873 47.8541 34.3855
-32.8761 49.9545 31.1806
-158.251 -20.899 9.86134
-156.22 -23.6726 7.19974
103.628 44.4579 -17.572
99.5529 45.9782 -16.5124
37.2761 -58.5119 -2.4996
40.7734 -58.2716 -0.941088
85.0606 -45.857 -24.7252
88.0487 -43.9443 -26.8286
-125.034 -38.3807 14.5928
105.718 44.922 -14.62
-56.784 50.8751 24.8389
-70.3893 50.0655 22.065
-65.1946 49.0436 25.9686
-60.839 50.6101 24.1966
16.975 2.02581 59.6709
-94.6325 42.0321 -27.1465
-90.8341 42.7661 -27.5852
-41.3456 -33.2653 -47.7926
-30.2226 19.3596 -55.7977
-26.4434 20.1361 -55.7578
147.361 8.20874 29.5649
147.859 11.9157 27.9552
-39.4261 -36.3421 -45.705
-40.6623 -39.2099 -43.1295
50.0128 -56.2194 11.5392
46.6958 -57.1248 8.35503
-112.908 43.7008 11.3808
-155.26 11.0907 -22.9304
-138.49 11.753 33.3736
-154.953 14.0743 -21.5038
-92.2926 48.0226 15.8434
-101.417 47.3453 -9.96111
-104.601 46.0105 -11.9796
-87.0916 48.1423 18.8075
-88.1731 48.9997 15.7234
53.6454 -14.7388 55.0495
50.7801 -13.1436 55.7813
-150.591 -23.6763 -16.2205
-146.854 -25.5222 -17.5596
3.86275 16.246 57.7429
1.59455 19.4347 56.7625
-54.2944 48.2595 -30.1682
-58.0894 47.4661 -30.5591
47.3921 -0.769013 -57.6579
43.7318 -2.02765 -57.9806
-60.8384 48.4536 -28.2685
-84.6094 -51.9488 -4.99045
-157.995 -15.594 -17.3427
-155.442 -19.1492 -16.5891
13.2811 -52.2207 29.1789
11.7876 -48.6316 34.8993
-111.861 -32.5692 -31.7386
128.252 -38.4337 -10.4449
125.24 -39.9342 -9.21843
-145.307 -10.5771 -30.0534
-11.1512 30.5279 51.5055
-8.33499 33.0213 50.0109
10.3853 -50.8704 31.6069
-97.2289 49.0466 6.08929
-92.8682 50.236 4.52452
-135.497 -1.88101 36.7256
53.9007 13.0072 55.4538
-132.582 0.782391 38.0445
-131.466 4.64958 38.2419
-56.4091 -6.77198 56.2546
-59.6302 -4.90619 56.0411
97.1567 30.3912 38.9967
99.1423 27.624 40.4173
[...]
POINT_DATA 4978
VECTORS F double
-2.50308e-08 2.56314e-08 -1.9252e-08
6.14998e-08 3.29219e-08 5.033e-09
6.61281e-08 3.17201e-08 5.00527e-09
7.64768e-08 2.76652e-08 6.93328e-09
7.49041e-08 2.72659e-08 5.31926e-09
-4.51051e-08 1.18806e-08 -1.05525e-08
-4.81247e-08 1.12615e-08 -8.86632e-09
9.56742e-08 2.0607e-08 8.00867e-09
9.16758e-08 2.24075e-08 9.70227e-09
6.0069e-09 3.93242e-08 -1.00141e-08
4.37554e-11 4.09164e-08 5.15396e-09
1.19461e-08 4.04969e-08 -8.24762e-09
-1.40077e-08 3.20204e-08 -1.85996e-08
3.62883e-09 2.58336e-08 2.80474e-09
-3.01143e-09 2.16541e-08 1.06903e-09
-1.36168e-08 3.06942e-08 -1.87913e-08
1.09137e-07 1.70819e-08 1.151e-08
1.13298e-07 1.597e-08 1.19566e-08
-1.63746e-08 6.01754e-09 1.83231e-09
6.2331e-08 2.77635e-08 7.4318e-10
7.07665e-08 3.19144e-08 1.10399e-08
7.22848e-08 3.42668e-08 1.40353e-08
6.24113e-08 2.87635e-08 -2.09548e-10
1.07613e-08 4.26654e-08 -1.11868e-08
4.6558e-08 4.28574e-08 1.05137e-09
2.68708e-08 4.78734e-08 8.00547e-10
4.74473e-08 5.54297e-08 1.47427e-08
4.68491e-08 5.34653e-08 1.34608e-08
1.95012e-08 4.73442e-08 1.31166e-09
-2.34618e-08 2.5768e-08 7.29052e-09
-7.53691e-08 2.10626e-09 -7.19986e-10
-7.44395e-08 2.61956e-09 1.17481e-09
-3.69772e-08 -2.13881e-08 -1.46016e-09
-3.77311e-08 -2.11083e-08 -2.24563e-09
2.28771e-08 3.59738e-08 2.92488e-09
-5.55908e-08 -1.89886e-08 -9.54697e-11
-1.6115e-08 3.32436e-08 -1.44611e-08
-1.66177e-08 3.37749e-08 -1.34516e-08
9.68164e-08 3.31549e-08 2.92885e-08
7.16583e-08 2.23831e-08 9.27444e-10
9.49527e-08 1.69791e-08 5.19148e-09
9.25516e-08 1.80066e-08 3.64618e-09
6.96777e-08 2.22042e-08 2.00908e-09
4.05211e-08 -2.89018e-08 -4.17035e-09
7.32633e-09 4.61697e-08 -6.79681e-09
9.91078e-10 4.2321e-08 -8.46045e-09
7.76574e-08 2.06346e-08 3.55318e-09
-3.30947e-08 1.95681e-08 -1.26196e-08
-3.23696e-08 1.83105e-08 -1.34052e-08
-6.97463e-08 -6.7795e-09 -1.22815e-09
-7.03954e-08 -6.14935e-09 -1.14675e-09
2.30809e-08 3.59367e-08 9.90382e-09
2.37184e-08 3.47521e-08 9.99373e-09
3.43947e-08 4.21954e-08 1.24871e-08
1.03885e-07 1.41956e-08 1.3342e-09
1.01772e-07 1.43205e-08 3.33954e-09
7.97719e-08 2.07799e-08 1.87496e-09
1.52728e-09 3.94393e-08 -1.59499e-08
-5.80194e-10 3.63283e-08 -1.67163e-08
1.38822e-08 4.05697e-08 -9.36977e-09
2.10247e-08 3.52778e-08 4.16577e-09
1.34082e-08 3.56012e-08 5.10318e-09
-1.79722e-08 3.15239e-08 6.91433e-09
-1.14346e-08 3.34704e-08 -1.848e-08
4.33707e-08 3.57432e-08 -7.8923e-10
-1.46162e-08 3.18107e-08 -1.97145e-08
-6.0531e-08 -9.2457e-09 2.71485e-11
-6.01708e-08 -9.66245e-09 -4.59201e-11
1.31265e-08 -2.82531e-08 4.39593e-09
8.70724e-09 -3.05428e-08 3.7711e-09
-6.76974e-08 -3.72755e-09 -2.838e-09
-6.70106e-08 -4.32843e-09 -2.84015e-09
5.06349e-08 -2.31592e-08 -3.37802e-09
4.66988e-08 -2.35073e-08 -4.77095e-09
-3.89029e-09 -4.00754e-08 2.7623e-09
-7.38829e-09 -4.20671e-08 1.30919e-09
7.20523e-08 4.1849e-08 -2.59549e-08
6.84109e-08 4.52167e-08 -2.4611e-08
-6.33302e-08 -3.56668e-09 4.02798e-09
-6.2978e-08 -4.22154e-09 3.88426e-09
-4.34842e-08 -2.08053e-08 -1.27259e-09
-6.90819e-08 -7.1474e-09 2.26397e-09
-1.63054e-08 3.18036e-08 -2.06009e-08
8.72717e-08 2.61078e-08 1.35929e-08
8.39364e-08 2.7141e-08 1.26587e-08
-3.61767e-08 1.603e-08 -1.49097e-08
-9.37493e-09 -9.704e-09 -4.81724e-10
-3.69557e-08 1.63697e-08 -1.40913e-08
-3.82136e-08 -2.23399e-08 -2.7122e-09
9.433e-08 1.99168e-08 6.2573e-09
9.82747e-08 1.8242e-08 6.19962e-09
9.66356e-08 1.8873e-08 4.83347e-09
-2.14628e-08 2.90655e-08 1.61114e-08
-1.66726e-08 2.896e-08 1.4793e-08
-5.16085e-08 -1.61721e-08 -4.04255e-10
-4.86408e-08 -1.80867e-08 -1.71232e-09
-4.43883e-08 -1.72646e-08 -9.4386e-10
9.50199e-08 1.52523e-08 -5.74044e-09
-4.13299e-08 1.32797e-08 7.84487e-09
-3.75961e-08 1.40357e-08 9.29886e-09
6.19762e-08 3.3479e-08 2.01889e-09
6.44002e-08 3.17348e-08 3.09839e-09
9.69128e-08 1.42146e-08 -4.21968e-09
9.86597e-08 1.52014e-08 -6.97184e-09
1.07914e-07 1.52524e-08 5.59811e-09
1.09762e-07 1.4424e-08 6.50741e-09
-3.11304e-08 3.21053e-08 -8.64585e-10
-3.00471e-08 3.17802e-08 1.26435e-09
-2.59458e-08 3.49297e-08 3.17525e-09
-2.16915e-08 2.85551e-08 -2.0137e-08
9.50405e-08 2.7873e-08 3.5434e-08
9.51329e-08 2.4358e-08 3.28502e-08
-4.06954e-08 1.23474e-08 -5.60298e-09
-1.72572e-08 3.10013e-08 -1.97342e-08
3.70209e-08 3.17441e-08 5.83462e-10
3.50707e-08 3.0388e-08 2.02345e-09
3.00271e-08 3.21215e-08 2.19961e-09
2.56323e-11 4.058e-08 -1.0046e-08
8.43447e-08 1.78671e-08 -3.0002e-09
8.43572e-08 1.81443e-08 -4.00358e-09
8.1303e-08 1.82567e-08 -2.67319e-09
7.67374e-08 1.92132e-08 -2.61947e-09
-5.53888e-08 -1.94095e-08 -2.25008e-10
-5.77706e-08 -1.92515e-08 7.34201e-11
-5.84275e-08 -1.82825e-08 -1.16029e-11
-5.16129e-08 1.0369e-08 4.28665e-09
-1.89061e-08 2.9834e-08 -1.95709e-08
-2.46638e-09 -3.0008e-08 -7.01149e-10
-9.16547e-09 -2.93994e-08 -4.12185e-10
-1.84611e-08 2.84927e-08 -1.95575e-08
-2.48079e-08 2.36406e-08 -1.90486e-08
9.29108e-08 2.31142e-08 1.19575e-08
-2.39599e-08 2.62151e-08 -1.93389e-08
-1.76044e-08 2.28414e-08 1.11513e-08
-1.86489e-08 2.22451e-08 9.89671e-09
-2.78372e-08 2.62409e-08 1.64992e-08
-2.12949e-08 2.11768e-08 1.01945e-08
-4.80473e-08 -6.50149e-10 -3.65296e-09
-4.21124e-08 -2.09171e-10 -3.37441e-09
7.77547e-08 2.02978e-08 -4.16847e-09
-4.53657e-08 -2.0258e-09 -2.77982e-09
-3.20709e-08 2.07887e-08 -1.19883e-08
-3.45577e-08 1.89893e-08 -1.00446e-08
-3.37173e-08 1.80208e-08 -1.11817e-08
1.68101e-08 3.9358e-08 -5.51286e-09
1.82461e-08 3.99249e-08 -5.926e-09
2.10087e-08 4.04667e-08 -4.49566e-09
-2.17734e-08 2.85997e-08 7.00634e-09
-1.64419e-08 3.07433e-08 7.81489e-09
-1.61783e-08 3.46312e-08 7.30641e-09
-1.83548e-08 3.41069e-08 6.46277e-09
-2.20728e-08 3.20465e-08 -1.19084e-08
-5.65385e-08 8.57825e-09 -9.04099e-09
-5.67996e-08 5.88195e-09 -7.60834e-09
-5.43231e-09 -3.58231e-08 1.55777e-09
-1.28627e-08 -3.5456e-08 1.63732e-09
-1.88976e-08 3.34414e-08 -1.22941e-08
2.47515e-08 3.97671e-08 -4.14205e-09
7.79669e-08 3.72218e-08 1.6722e-08
8.49694e-08 3.52641e-08 1.78687e-08
1.78486e-08 4.13071e-08 -5.04644e-09
2.80813e-08 4.19289e-08 -2.27261e-09
2.21591e-08 1.27524e-10 -2.22992e-09
3.33398e-08 -1.18884e-09 -3.00238e-09
-2.63991e-08 2.5807e-08 -2.00563e-08
-2.54215e-08 2.69627e-08 -2.15621e-08
-6.09058e-08 -1.11847e-08 1.01356e-09
-4.288e-08 1.05063e-08 -4.41425e-09
-6.15271e-08 -1.08346e-08 4.73913e-10
1.16599e-07 -2.14742e-08 -8.81871e-09
1.16191e-07 -1.61616e-08 -3.46509e-10
2.51453e-08 -2.78451e-09 -1.52818e-09
9.05692e-08 2.04085e-08 4.28761e-09
9.23531e-08 2.0338e-08 4.52644e-09
9.26019e-08 1.98054e-08 5.41524e-09
-5.80668e-08 -1.13125e-08 -3.87072e-10
-5.83364e-08 -1.19495e-08 2.557e-10
-3.38579e-08 2.63498e-08 -1.22799e-09
8.6165e-09 3.38703e-08 -5.42789e-09
-6.28267e-08 1.19256e-08 1.29389e-08
-5.9967e-08 1.28467e-08 1.26585e-08
8.39508e-09 3.33723e-08 -4.4038e-09
5.70514e-08 2.71006e-08 -4.07238e-09
1.36412e-07 7.52063e-10 6.72592e-10
1.41835e-07 -5.0443e-10 9.96443e-10
3.792e-09 3.45443e-08 -2.60811e-09
-3.3415e-08 1.41796e-08 4.0496e-09
-3.35993e-08 1.55031e-08 6.40631e-09
-2.91719e-08 1.73475e-08 6.67136e-09
-3.40321e-08 1.53619e-08 3.86471e-09
-3.0951e-08 1.65732e-08 5.8646e-09
1.32336e-07 9.94148e-09 -1.78783e-08
8.28305e-08 1.9719e-08 -2.64935e-09
3.75588e-08 4.6732e-08 -1.20501e-08
1.34086e-07 9.62651e-09 -2.0519e-08
9.0131e-08 1.81419e-08 -1.82593e-09
8.49312e-08 1.82879e-08 -2.08537e-09
-4.39977e-08 2.55164e-08 -1.971e-08
-4.35947e-08 2.85176e-08 -2.11942e-08
-7.18584e-08 4.26707e-09 -7.58665e-09
5.79814e-08 -2.2704e-08 -9.42405e-09
5.31531e-08 -2.21294e-08 -8.48713e-09
-2.8119e-08 1.71029e-08 5.89275e-09
-3.22867e-08 1.30287e-08 5.72903e-09
4.10156e-08 -2.54155e-08 -8.41382e-09
-3.63166e-08 3.09227e-08 -2.07429e-08
-5.4513e-08 -2.05869e-08 -4.26652e-10
-3.37476e-08 2.08622e-08 -4.23187e-10
-3.99953e-08 1.89183e-08 1.41308e-08
-7.07944e-08 -8.12352e-09 1.83734e-09
-7.13394e-08 -8.59078e-09 1.22683e-09
-4.25584e-08 1.76899e-08 1.4211e-08
-4.85135e-08 1.08892e-08 5.93619e-09
-5.00456e-08 1.22423e-08 8.74935e-09
-5.00658e-08 2.1502e-08 -2.03091e-08
-5.04634e-08 2.36108e-08 -2.03083e-08
5.68536e-08 -2.02895e-08 -7.26366e-09
6.35597e-08 -2.30536e-08 -9.93598e-09
-3.4368e-08 2.3765e-08 -2.09572e-09
-9.6624e-09 2.52494e-08 9.60138e-09
1.00381e-08 3.25431e-08 6.46452e-09
-9.04698e-09 4.36102e-08 -6.31972e-09
-5.30815e-09 4.95774e-08 -5.33504e-09
5.72878e-09 3.00058e-08 7.53283e-09
-3.43055e-08 2.3123e-08 -2.39739e-10
-8.75765e-09 4.19384e-08 -9.99775e-09
-5.58654e-09 4.23111e-08 -9.22543e-09
-6.16377e-08 -1.67001e-08 3.00925e-10
-6.23146e-08 -1.59019e-08 2.15666e-10
7.91712e-08 2.57417e-08 5.21394e-09
-1.79461e-08 -2.73317e-08 -1.54183e-09
-1.46484e-08 -2.53827e-08 -4.33716e-10
7.53078e-08 2.70735e-08 4.0286e-09
-1.9217e-08 -8.01796e-09 8.43653e-10
-1.76601e-08 -5.11746e-09 1.21422e-09
7.70977e-08 2.58737e-08 3.96942e-09
-4.50814e-08 -3.03456e-08 -1.14691e-09
-4.45656e-08 -3.00473e-08 -7.95205e-10
5.51071e-08 3.77191e-08 8.51473e-09
5.42771e-08 3.54969e-08 6.5849e-09
4.1135e-07 -1.75838e-08 -4.00671e-07
1.42458e-08 3.99187e-08 3.85551e-09
1.20296e-08 3.71567e-08 5.63217e-09
6.36523e-08 2.36079e-08 3.01025e-10
6.91543e-08 3.03278e-08 5.59492e-09
-3.00632e-08 3.25751e-08 1.37698e-08
-2.85341e-08 2.36541e-08 -2.01003e-08
-2.92756e-08 2.35019e-08 -1.89497e-08
-4.35016e-08 -2.85898e-08 -2.32447e-09
-4.24872e-08 -2.93417e-08 -1.38292e-09
6.14802e-08 3.34241e-08 7.42741e-09
-1.53931e-08 -3.79536e-09 -9.93596e-10
5.78331e-08 3.42951e-08 6.61207e-09
7.3292e-08 2.9211e-08 6.6664e-09
7.14523e-08 2.85485e-08 5.72871e-09
7.5556e-08 2.00042e-08 -1.63471e-09
-3.63881e-08 -2.45508e-08 2.4323e-09
7.83219e-08 1.91898e-08 -1.72302e-09
6.42794e-08 3.1577e-08 6.17532e-09
-6.97527e-08 -9.79834e-09 9.68096e-10
-4.88119e-08 -4.96605e-09 -1.7897e-09
-4.81236e-08 -5.35828e-09 -1.92499e-09
4.12216e-08 -2.46884e-08 -7.43439e-09
7.86357e-08 2.29272e-08 2.95914e-09
7.74631e-08 2.2051e-08 4.08056e-09
3.19979e-08 -2.5767e-08 -6.90757e-09
3.60112e-08 -2.75263e-08 -8.40718e-09
4.19214e-09 -9.46243e-09 -9.1566e-10
-4.45243e-08 1.3619e-08 9.90697e-09
-4.48681e-08 1.49716e-08 1.19303e-08
6.46803e-08 4.98271e-08 1.7747e-08
-3.21481e-08 2.45518e-08 2.17561e-09
4.59483e-08 3.85263e-08 3.82466e-09
-3.52508e-08 3.11918e-08 1.76637e-08
4.16227e-08 3.7165e-08 1.24152e-09
5.07685e-08 3.61898e-08 3.91914e-09
-1.58009e-09 3.96194e-08 -9.829e-09
-6.57546e-09 -2.06541e-09 -5.98333e-10
4.79052e-09 4.09262e-08 -8.74982e-09
2.16575e-08 4.26461e-08 -5.58485e-09
-4.94346e-08 -1.29717e-08 8.98491e-10
4.05079e-08 2.97702e-08 -5.5698e-10
-7.09907e-09 3.5581e-08 -1.67158e-08
-7.1349e-09 3.37266e-08 -1.753e-08
-4.53906e-08 -1.46534e-08 1.38923e-09
-4.88211e-08 -1.28544e-08 5.04435e-11
9.10142e-09 4.17998e-08 -6.47531e-09
-3.8944e-08 -2.1007e-09 -2.38815e-09
-3.82606e-08 -2.88178e-09 -2.28671e-09
2.23897e-08 4.20482e-08 -4.35383e-09
1.05985e-08 4.19625e-08 -6.46585e-09
1.39516e-08 4.18569e-08 -5.08645e-09
6.26267e-08 3.30522e-08 5.44964e-09
-6.50659e-08 -1.10109e-08 -2.21429e-10
1.68241e-07 -5.24198e-09 8.73526e-09
1.62998e-07 -2.56147e-09 1.06592e-08
-6.21738e-08 -1.0978e-08 -2.35611e-10
-6.13612e-08 -1.16828e-08 -1.07444e-10
-3.4938e-08 2.20996e-08 -7.47934e-09
-3.41176e-08 2.05202e-08 -8.91369e-09
-5.32585e-08 -1.61335e-08 5.39819e-10
-5.04147e-08 -1.53271e-08 6.64633e-10
2.89047e-08 3.07248e-08 3.55981e-09
2.42228e-08 3.16574e-08 4.09217e-09
-5.39596e-08 -1.60406e-08 1.22118e-09
5.84958e-08 2.83144e-08 -5.95867e-09
3.54508e-09 3.33688e-08 -1.82847e-09
-2.92852e-08 -4.08325e-08 4.65754e-10
-2.41186e-08 -4.17158e-08 1.05841e-09
5.95291e-08 3.04791e-08 -7.88218e-09
6.23052e-08 -1.86665e-08 -1.58751e-10
5.91326e-08 -1.96356e-08 1.70199e-09
6.17789e-08 -1.97035e-08 -1.58064e-09
-3.36657e-08 -1.86127e-08 1.17735e-09
-3.42633e-08 -1.9837e-08 2.512e-09
2.35041e-08 4.65721e-08 -7.37752e-09
-3.00207e-08 -1.88234e-08 1.6817e-09
9.25217e-08 1.61792e-08 -5.1155e-09
9.8702e-08 1.44024e-08 -5.42259e-09
1.04219e-07 1.17702e-08 -4.39993e-09
1.05839e-07 1.20034e-08 -5.56853e-09
-3.00185e-08 2.91544e-08 2.81051e-09
-3.2311e-08 2.63654e-08 8.57553e-10
6.37238e-08 -2.15314e-08 -8.46728e-09
6.44022e-08 -1.96913e-08 -7.29415e-09
-7.40614e-08 -5.77967e-09 7.77853e-11
-7.36685e-08 -6.31793e-09 4.47771e-10
-5.88855e-08 -1.32915e-08 -1.49928e-10
-5.65967e-08 -1.45701e-08 1.12525e-09
-3.34341e-08 1.43395e-08 2.64281e-09
6.23944e-08 -2.02885e-08 -7.10328e-09
9.93393e-08 1.54906e-08 -3.92483e-09
9.34416e-08 1.65469e-08 -1.05118e-09
9.46959e-08 1.67721e-08 -2.57024e-09
9.76389e-08 1.51218e-08 -1.57336e-09
-2.63237e-09 2.60566e-08 -7.9292e-10
7.9339e-08 2.64311e-08 7.06431e-09
8.09495e-08 2.72298e-08 9.58168e-09
-3.50411e-08 3.41773e-08 -2.00773e-08
5.70095e-08 5.1077e-08 1.39413e-08
5.69627e-08 5.4384e-08 1.63327e-08
8.63304e-09 -3.325e-08 3.96395e-09
1.59619e-08 -3.36661e-08 4.01421e-09
-4.15686e-08 2.96156e-08 -1.91587e-08
-4.45899e-08 2.81586e-08 -2.04529e-08
-7.14067e-08 -7.39342e-09 1.86863e-09
-7.22451e-08 -6.94627e-09 1.93973e-09
7.69582e-08 2.3366e-08 3.7498e-09
2.72032e-08 4.49834e-08 -7.92919e-10
2.91239e-08 3.33466e-08 3.05235e-09
3.29639e-08 4.47009e-08 1.76539e-10
8.70546e-08 1.9293e-08 3.60645e-09
8.51188e-08 2.32898e-08 4.59972e-09
8.23054e-08 2.44869e-08 6.06488e-09
8.76166e-08 1.82979e-08 2.83375e-09
8.80866e-08 1.86541e-08 2.34231e-09
-2.51062e-08 -7.51138e-09 9.84172e-10
-2.44321e-08 -5.45003e-09 1.43876e-09
-2.73943e-08 2.89425e-08 -1.11095e-08
-2.68833e-08 2.76918e-08 -1.27237e-08
3.08356e-08 4.35688e-08 -1.25106e-08
3.99809e-08 4.93389e-08 -1.70304e-08
9.83224e-08 2.10689e-08 1.20397e-08
9.59593e-08 2.12784e-08 1.07192e-08
-8.1746e-09 -7.3074e-09 -7.25168e-10
-9.3221e-09 -5.57238e-09 -6.65946e-10
9.5379e-08 2.14469e-08 1.16305e-08
-4.97457e-08 1.04048e-08 -5.05529e-09
-2.00683e-08 3.64492e-08 -1.03911e-08
-2.31989e-08 3.18894e-08 -1.0198e-08
-6.7705e-08 1.45839e-09 6.38281e-09
-6.39976e-08 3.3575e-09 7.32497e-09
-1.98531e-08 2.74117e-08 -1.95628e-08
-5.39109e-08 -2.23783e-08 1.302e-09
-5.51599e-08 -2.13171e-08 5.99704e-10
-4.39752e-09 3.83088e-08 -1.08795e-08
7.59365e-08 3.60041e-08 -1.93273e-08
8.08859e-08 3.20891e-08 -1.95375e-08
-6.64663e-08 3.15103e-09 7.74522e-09
8.78326e-08 2.08608e-08 3.67132e-09
9.02805e-08 1.99684e-08 5.1528e-09
9.65904e-09 3.44482e-08 6.12723e-09
1.17353e-08 -8.89287e-09 6.89425e-10
1.4099e-08 3.29971e-08 5.33673e-09
2.14989e-08 3.23051e-08 5.12054e-09
1.40215e-08 3.91902e-08 6.43905e-09
1.3346e-08 3.92998e-08 5.1791e-09
3.93254e-08 -2.44458e-08 7.05646e-09
3.56815e-08 -2.70565e-08 7.77689e-09
3.57469e-08 -2.55834e-08 7.52889e-09
-3.14363e-08 2.1756e-08 -1.90255e-08
-3.09372e-08 1.92691e-08 -1.72636e-08
-3.05549e-08 2.1777e-08 -1.85131e-08
2.18228e-09 2.84917e-08 7.99135e-09
3.43271e-09 3.06598e-08 8.5952e-09
-3.36198e-08 3.14556e-09 3.81372e-09
-2.98585e-08 9.6394e-10 2.79073e-09
8.3487e-09 2.99136e-08 7.47837e-09
-1.70012e-09 -3.26848e-08 1.12262e-09
8.9585e-11 -3.34011e-08 2.26645e-09
4.32584e-08 4.33435e-08 -6.49722e-09
-1.46421e-09 -3.24686e-08 2.25385e-09
1.55388e-09 -4.06059e-08 -2.0697e-09
-2.53342e-09 -4.30224e-08 -4.19883e-10
-2.12357e-08 3.09551e-08 -2.17833e-08
6.91858e-08 2.13349e-08 -1.80474e-10
5.1268e-09 4.37835e-08 -1.3761e-08
5.52803e-09 3.90714e-08 -1.40014e-08
9.23552e-09 4.2041e-08 -1.22959e-08
1.92815e-08 -3.67274e-08 -4.32624e-09
1.88906e-08 -3.75453e-08 -4.60867e-09
2.11702e-08 -3.50061e-08 -5.52393e-09
-6.60014e-08 -1.03357e-08 -4.11409e-10
1.21335e-08 2.89226e-08 6.33785e-09
1.60057e-08 3.11428e-08 5.02522e-09
1.00623e-07 1.94459e-08 1.10901e-08
2.40049e-08 3.10842e-08 3.10417e-09
2.12676e-08 3.05679e-08 4.30893e-09
1.27073e-07 2.62145e-08 -4.29448e-08
1.15405e-07 2.14028e-08 -3.38228e-08
-3.40129e-09 2.67051e-08 -4.66214e-10
1.12529e-07 2.242e-08 -3.82952e-08
-1.11226e-08 3.07907e-08 1.45604e-08
-1.03835e-08 3.12313e-08 1.52427e-08
2.99392e-08 2.91387e-08 2.46003e-09
-9.75937e-09 4.74223e-08 -5.21624e-09
-3.67259e-08 1.47869e-08 -1.08993e-09
-3.59956e-08 1.3675e-08 -5.30935e-10
2.29123e-08 -2.28036e-08 -4.77008e-09
9.73212e-08 1.99843e-08 8.13741e-09
9.95439e-08 1.87635e-08 7.93684e-09
-3.42518e-09 4.85735e-08 -5.18643e-09
1.14633e-07 1.23541e-08 4.85661e-09
6.01454e-08 3.57045e-08 9.25298e-09
6.47e-08 3.54449e-08 1.09726e-08
1.12521e-07 1.33048e-08 4.90707e-09
3.13772e-08 -2.61452e-08 -6.48134e-09
-6.60088e-08 -7.99537e-09 -1.07466e-09
-6.6651e-08 -7.56032e-09 -7.80825e-10
-7.2926e-08 -2.14828e-09 3.97705e-09
-6.59719e-08 -8.55278e-09 -5.59058e-10
7.6549e-08 2.79644e-08 1.06747e-08
-3.36545e-08 2.05525e-08 1.63348e-09
5.93406e-08 3.9629e-08 -1.53571e-08
5.41662e-08 4.23748e-08 -1.43039e-08
8.61263e-08 2.52726e-08 1.15429e-08
8.72702e-08 2.67165e-08 1.48363e-08
6.82399e-08 2.90361e-08 1.79266e-09
6.63884e-08 3.05195e-08 1.47739e-09
8.20781e-08 2.71323e-08 1.20755e-08
1.07742e-07 1.58315e-08 7.71136e-09
1.05742e-07 1.66726e-08 7.2132e-09
1.10471e-07 1.63066e-08 9.5409e-09
-7.37717e-08 4.00726e-09 -5.17116e-09
-7.50786e-08 2.49179e-09 -3.35491e-09
-7.32813e-08 3.41302e-09 -5.35293e-09
6.57549e-08 -1.82474e-08 8.49931e-10
9.08649e-08 1.79316e-08 -5.23715e-09
8.90179e-08 1.69393e-08 -2.24121e-09
8.60918e-08 1.81056e-08 -2.54366e-09
-3.2178e-08 2.00883e-08 1.4901e-08
5.62041e-08 2.76218e-08 8.88032e-10
5.72709e-08 2.90223e-08 -7.22606e-10
9.74891e-08 2.00618e-08 9.04484e-09
1.00697e-07 1.84109e-08 6.9848e-09
1.05117e-07 1.23676e-08 -3.77452e-09
-6.35307e-08 -1.51027e-08 8.40159e-10
-6.51753e-08 -1.46738e-08 4.30038e-10
-6.61414e-08 -1.349e-08 2.62605e-10
-6.58299e-08 -1.38621e-08 4.95017e-10
1.06618e-07 1.24493e-08 -5.30938e-09
-3.07568e-08 2.02328e-08 4.82089e-09
-2.44584e-08 2.44778e-08 7.76056e-09
-2.48584e-08 2.21609e-08 7.4197e-09
-2.83854e-08 2.07702e-08 5.91518e-09
9.74869e-09 3.98266e-08 -9.7229e-09
9.76578e-09 4.09891e-08 -8.63634e-09
5.52175e-08 3.71374e-08 3.43519e-09
5.29446e-08 3.87941e-08 1.94107e-09
-5.30581e-08 -9.11572e-09 -5.65323e-10
-5.60805e-08 -1.0039e-08 2.93738e-10
1.28662e-07 3.98465e-09 -1.31818e-09
1.25492e-07 5.21287e-09 -1.53289e-09
6.00344e-08 2.27897e-08 -4.33311e-10
5.75006e-08 2.42518e-08 -3.69445e-10
-2.86685e-08 2.36813e-08 5.72644e-09
-3.15425e-08 2.10041e-08 3.32619e-09
-2.2382e-08 2.65457e-08 -5.45531e-09
1.14865e-07 1.48757e-08 1.05818e-08
1.17959e-07 1.29649e-08 8.44848e-09
1.19833e-07 1.20215e-08 8.63727e-09
1.21754e-07 1.20409e-08 9.52772e-09
3.04984e-08 3.07637e-08 2.25129e-09
-7.12425e-08 -6.10783e-09 2.67278e-09
-7.07226e-08 -6.80874e-09 2.67007e-09
3.4955e-08 2.90934e-08 2.22388e-09
3.24961e-08 4.0761e-08 -2.05789e-09
2.61978e-08 4.10647e-08 -3.18551e-09
-1.25825e-08 3.50464e-08 -1.22502e-08
-9.34059e-09 3.90582e-08 -1.141e-08
-1.11297e-08 3.85529e-08 -1.00486e-08
-1.86785e-08 2.85634e-08 -1.79852e-08
-1.74503e-08 3.06341e-08 -1.99449e-08
-1.35305e-08 3.11332e-08 -1.80203e-08
2.49773e-09 3.85847e-08 -1.2028e-08
-1.95761e-09 3.63643e-08 -1.24505e-08
-4.69577e-08 -1.99461e-08 1.73924e-09
-4.775e-08 -2.00837e-08 2.58352e-09
-4.05224e-08 -5.9319e-09 -1.45326e-09
-4.12461e-08 -7.95549e-09 -5.73188e-10
1.04273e-09 3.80764e-08 -1.10413e-08
7.50209e-08 3.32367e-08 1.55977e-08
7.57246e-08 3.37813e-08 1.49852e-08
7.41957e-08 3.32358e-08 1.32935e-08
4.80288e-08 4.05906e-08 1.81726e-09
4.03841e-08 4.28947e-08 8.56714e-10
4.42409e-08 4.31575e-08 1.84326e-09
-1.80923e-08 4.07199e-08 -7.43452e-09
-1.70824e-08 4.30182e-08 -5.34728e-09
-9.21771e-09 -4.47334e-08 1.12933e-09
5.32284e-09 3.89579e-08 -1.2838e-08
5.17491e-09 4.03321e-08 -1.14847e-08
-4.72361e-09 -4.32186e-08 2.21444e-09
-1.56479e-08 -4.28551e-08 7.08882e-10
7.07747e-08 2.20868e-08 -2.00446e-09
-4.15865e-09 -8.40451e-09 7.78541e-10
-2.79611e-08 2.58427e-08 -1.34469e-08
-2.67101e-08 2.50734e-08 -1.48618e-08
-3.08778e-08 2.26135e-08 -1.34838e-08
6.64978e-08 2.25018e-08 -3.32064e-10
9.45092e-08 2.04813e-08 8.16449e-09
-5.2761e-08 8.64897e-10 -4.71447e-09
1.00427e-07 1.84089e-08 6.35978e-09
9.84441e-08 1.9521e-08 7.3318e-09
3.26151e-08 -1.51806e-09 2.36283e-09
3.54799e-08 -5.79279e-09 7.61304e-10
-2.40367e-08 2.52362e-08 -1.64267e-08
9.29531e-08 1.6167e-08 -1.20643e-10
4.25777e-08 3.75742e-08 3.07744e-09
4.5315e-08 3.73983e-08 4.18501e-09
5.05956e-08 3.52892e-08 4.28811e-09