# vtk DataFile Version 2.0
S, Created by Mohamad Ibrahim Cheikh
ASCII
DATASET UNSTRUCTURED_GRID
POINTS 41904 double
-471.691 -1.007 -61.1155
-470.759 2.20291 -61.9581
-490.799 36.7378 -11.6096
-431.165 -2.12993 -90.6161
-415.796 -23.145 -96.3004
-418.914 -21.4326 -95.0342
-279.671 -17.6211 145.222
-279.024 -14.0275 145.765
-378.355 -56.4215 -101.323
-378.046 -59.5877 -99.638
-404.813 -104.155 8.03461
-396.904 80.9028 71.7213
-403.157 -104.651 11.1724
-469.731 -52.6798 34.4511
-470.682 -53.642 31.2266
-437.597 -78.4125 37.1902
-436.165 -77.9209 40.1647
-303.876 106.973 90.7051
-444.621 68.9277 44.9661
-442.472 71.8335 42.9684
-375.994 -80.795 84.4982
-372.9 -80.1228 86.7862
-371.037 -104.356 -56.8426
-368.557 -104.077 -59.2761
-478.346 -53.3951 -10.5376
-480.231 -51.9061 -6.82344
-457.756 65.1024 -32.9178
-455.554 65.2236 -36.2485
320.672 -121.216 -60.7701
324.315 -119.533 -61.7308
-239.982 -136.814 -72.1599
-478.767 53.9117 -2.50806
-453.589 -70.3056 -29.0494
-482.157 -48.0702 -14.2542
-483.408 -47.324 -11.2447
-388.072 -75.7202 -82.4893
-385.475 -78.5485 -81.3272
-351.738 125.52 -8.57881
-399.219 104.718 22.3099
-397.175 106.344 18.8112
363.827 6.25711 -121.37
364.239 2.71583 -121.35
-452.549 -54.9514 53.6887
-449.703 -57.3656 54.0902
-324.249 28.7694 -131.439
-320.657 29.8471 -132.275
-356.138 91.8512 83.7316
-352.999 93.0721 84.0105
-461.482 -3.57769 69.9264
-462.57 0.0563221 69.1332
18.7302 -1.51724 175.871
-429.023 -45.5651 -79.7822
27.671 1.79116 -175.724
-476.33 56.4368 -3.54892
-430.9 -42.7443 -80.1038
-490.558 25.3919 29.4729
-488.929 29.3072 29.1533
-438.379 81.3679 -28.7593
-441.379 79.4044 -28.629
333.647 73.2231 -109.478
330.82 75.3761 -109.066
-488.276 40.6968 -11.4313
-487.238 42.9653 -8.05799
-479.534 10.7079 52.0393
-481.802 8.9619 49.7548
-414.156 35.8258 93.2343
-410.221 36.7546 94.9859
-426.687 45.065 -81.5795
-10.6417 -6.63903 175.835
-423.448 45.7696 -83.2365
-320.02 36.5887 -130.762
-318.48 33.8366 -131.959
-495.025 -29.5772 -9.98231
-493.256 -32.1876 -12.3466
-465.244 63.0498 22.3702
-463.103 65.7051 20.0473
-475.787 56.2689 9.7409
-138.383 -125.849 113.109
-141.984 -125.356 113.109
-391.384 47.2319 99.9552
-499.869 10.0121 16.8575
-498.659 13.8487 18.4547
-462.957 49.8719 47.4171
-464.827 46.7692 48.3307
-498.468 -22.6656 6.47177
-498.219 -24.0258 2.97406
-443.602 67.1544 -48.7246
-446.958 65.9393 -46.582
-420.237 -20.4628 94.5316
46.0188 1.92691 -175.251
-418.56 -17.9194 95.948
-481.262 40.6042 31.1583
-15.5806 8.12017 -175.728
-483.398 39.3932 28.5551
-313.179 -133.984 31.8762
-309.853 -135.137 30.9787
-395.698 46.8136 98.0546
-329.236 123.137 50.4199
-433.178 -48.4657 -75.1916
-435.431 -45.2156 -75.6221
-493.755 -28.2708 -18.1366
-492.471 -31.9022 -16.2944
-13.1154 -5.98622 175.838
-3.64285 15.7143 175.292
-140.624 -144.06 88.327
-137.578 -145.391 86.7181
-301.547 140.314 12.4601
-23.8486 10.4563 -175.491
-300.836 140.146 15.9639
-243.363 148.027 42.579
-352.117 -64.5839 -107.82
-466.876 -42.2921 50.0077
-468.489 -43.5621 46.9799
199.895 -156.267 40.7975
-369.749 64.4955 100.391
-366.452 67.3185 100.017
-314.461 137.129 -8.07025
-312.043 137.937 -5.31113
-182.097 57.5567 -153.634
-181.132 60.4814 -152.647
-158.951 -12.6584 -166.501
-155.98 -15.6984 -166.586
-458.861 -28.9048 -66.0484
-462.191 -27.5574 -63.741
-495.204 13.478 27.7682
-127.674 -157.148 -65.4574
-16.9156 2.36404 -175.885
-129.97 -156.054 -67.4919
-239.645 148.646 43.0021
-252.559 56.4016 141.37
-255.381 53.8564 141.741
-245.855 146.89 44.7094
-195.674 -150.571 60.1389
381.417 -105.084 46.0686
382.912 -105.642 43.1829
-93.4615 44.4563 167.123
-90.0237 45.1173 167.177
-211.521 108.51 -117.149
-215.047 108.804 -116.086
-352.159 101.06 -74.6956
-500.625 -6.43267 -15.8264
-37.4606 -158.126 -76.1596
-41.2543 -158.299 -75.5574
-500.266 -3.43419 -18.0001
-483.811 -42.8951 21.8702
447.56 -11.2041 79.5389
445.012 -9.48698 81.4887
-217.052 -82.5069 135.649
-215.067 -80.0271 137.509
-485.789 -39.3461 23.1397
-496.739 12.2876 24.8052
-270.776 140.099 -48.701
-272.517 138.663 -51.5377
351.604 -74.3779 -101.531
348.353 -76.2405 -101.521
364.225 -65.3074 -102.32
361.695 -68.4284 -101.374
-201.363 -150.808 57.1728
43.8419 -54.711 -166.575
-253.681 147.24 -37.6481
-257.598 146.066 -38.9439
-358.083 -3.81242 -123.544
-360.258 -0.377326 -122.826
-193.584 -136.674 87.7964
-190.512 -138.374 85.9366
-37.7054 -143.711 100.742
-39.3428 -141.884 103.226
-144.683 131.863 -105.002
34.1099 9.3787 -175.344
-140.669 131.668 -105.91
-423.341 -52.8507 79.0007
45.9733 -57.9889 -165.392
-218.856 -87.4999 -132.12
-220.664 -90.4021 -129.777
-199.356 -150.087 59.8683
-463.907 22.0631 64.3509
-8.63302 6.58293 -175.851
-335.671 114.074 64.5628
-12.4372 5.96711 -175.845
-244.481 73.3524 -135.195
-387.923 -59.286 -95.0647
-391.349 -59.2007 -93.3838
-432.667 -78.0532 -44.3247
345.963 92.5019 88.1229
198.198 -119.128 109.431
201.742 -117.709 110.172
-286.163 13.5762 144.104
-284.877 9.57325 144.736
-429.644 -80.5292 -43.487
-354.953 73.6058 -100.663
-358.055 71.4203 -100.892
-436.374 -80.8969 33.4401
-399.687 25.7018 -103.717
-398.805 22.1815 -104.938
-396.206 -88.847 62.1548
-398.589 -86.0842 64.1452
382.99 109.769 31.1229
-433.178 -82.9144 33.5849
381.308 111.211 28.4135
-415.068 92.4096 -36.6608
-413.471 94.2948 -33.9702
-71.9875 149.355 89.6352
-69.0783 151.029 87.0742
-213.799 83.9184 135.416
-217.61 83.4455 134.964
-296.599 -138.881 30.2944
-294.05 -140.04 27.9098
-375.924 -33.1213 -112.148
-372.36 -34.6081 -113.15
-143.007 152.811 71.5602
-146.677 152.373 71.5861
453.894 70.9797 -26.7351
450.813 73.1215 -27.3391
146.44 -150.097 76.2988
148.899 -148.49 78.8185
-454.86 -8.96566 74.5993
-453.471 -12.3072 75.1564
-433.926 -59.3057 -66.3789
-430.141 -61.3078 -67.5655
-345.337 -19.9245 126.405
-343.767 -23.3367 126.345
-303.624 -124.871 -64.0063
-305.085 -122.604 -67.4453
365.473 61.51 104.112
361.877 61.3576 105.728
-227.581 -124.284 -95.8569
-224.42 -126.599 -93.7161
120.734 -166.944 36.3462
-6.78788 -12.1792 -175.562
33.9051 -1.87254 175.59
117.917 -166.488 39.4402
-270.652 26.3343 -145.994
-266.767 26.2005 -146.89
-202.373 87.5433 135.27
-199.244 86.3393 136.606
-354.774 -123.15 20.0103
-352.387 -61.5533 -109.473
-378.032 41.888 -108.282
-374.81 44.4866 -108.617
-22.385 6.72508 -175.697
-18.6531 5.7999 -175.783
-247.519 -68.4241 137.089
-247.49 -64.9929 138.755
-215.588 -77.5029 -138.849
-211.796 -78.1836 -139.181
-279.837 -105.209 101.586
-251.613 56.626 -141.487
-277.18 -107.008 100.593
-297.371 -57.0923 -129.961
-300.107 -58.9182 -128.367
-154.982 -135.088 98.9269
-157.944 -133.878 99.9924
-222.89 -68.7585 -142.007
-224.533 -71.6745 -140.237
-85.4983 -167.403 -45.3569
-88.876 -167.519 -44.1164
-314.632 134.496 27.6955
-311.526 135.085 29.0934
-406.02 -60.4277 84.5076
-409.447 -59.274 83.292
-453.392 -68.6395 -33.1256
-455.685 -65.9684 -34.6652
-282.424 -100.21 105.681
-279.525 -102.379 104.539
11.2824 15.4423 175.277
-302.043 33.6288 136.659
-303.614 30.4727 136.973
-246.864 119.389 -96.2342
-249.034 116.577 -98.9591
-207.531 -148.446 60.553
-205.506 -150.062 57.3312
-339.82 -45.8686 -121.384
-343.515 -43.5856 -120.951
-21.6701 -0.621969 175.835
-193.174 148.119 -66.8437
-189.498 148.967 -66.2454
-19.1467 -3.20393 175.843
9.66346 9.80628 175.694
8.65632 13.1372 175.483
-364.328 77.8087 93.1184
-28.2741 10.8606 -175.386
-30.2074 14.0751 -175.118
69.0371 18.5937 173.34
65.9918 21.364 173.166
-364.279 80.3941 90.9194
-396.53 89.2344 61.3413
-502.812 -3.44258 3.34966
-314.506 -37.0954 132.249
-315.506 -39.7691 131.176
-123.647 -164.929 -43.6211
-502.98 1.05268 1.16789
-396.076 71.6411 81.4685
-392.604 71.9782 83.2106
-389.983 74.398 82.5884
-420.235 -34.2188 -90.4663
-226.325 156.79 -11.0352
-380.099 -115.011 7.76233
-416.396 -35.7643 -92.0284
-359.29 100.395 71.3615
-341.94 -2.30111 129.057
-466.94 20.5253 62.1358
-319.251 -123.136 -57.7524
-316.7 -125.007 -55.4042
-153.224 70.7599 -151.969
-152.237 73.4642 -150.803
-413.654 -33.6964 -94.2947
-489.325 7.94097 -39.9782
-209.986 66.95 145.242
-208.326 70.1235 144.032
-195.589 -159.804 27.4811
-191.967 -160.076 28.9805
-490.704 10.64 -37.1854
-468.792 22.4928 59.6999
-443.85 -81.716 13.3904
-446.311 -78.7519 19.6664
-446.572 -79.5418 15.2715
-387.371 58.6728 95.7186
-392.61 60.7653 91.7159
153.28 -42.5639 162.135
-388.682 61.4804 93.2748
-470.126 -61.7768 10.0112
-470.722 -61.7454 5.95469
-467.243 -64.2175 11.118
267.092 141.027 48.5118
-305.222 -139.893 -0.395632
480.842 32.7602 39.9468
-309.009 -138.871 0.504665
338.519 130.174 0.87205
263.416 139.68 54.4998
263.575 141.141 50.495
-400.392 73.6792 -76.9421
-475.405 23.296 52.5624
74.1861 23.2371 -172.517
69.7574 23.2884 -172.736
-476.512 25.8959 50.0584
2.97542 11.2956 175.634
-225.232 53.009 148.173
-224.195 49.2505 149.655
-374.595 -92.9322 71.8329
-0.77406 11.6615 175.613
-371.745 -95.0439 70.8763
-439.324 -59.5465 -61.6476
-264.642 14.5573 -148.962
-261.404 14.7423 -149.642
-440.191 -61.7359 -58.6647
-436.002 -60.9266 -63.1677
-401.4 67.0347 82.1954
-396.51 28.4 -104.503
-393.855 26.9311 -106.109
-165.912 -145.456 -80.3016
-168.897 -146.35 -77.8798
-42.0515 2.88163 -175.36
-442.191 82.4476 -15.4668
-438.466 84.7505 -15.9927
-398.173 68.3241 83.0509
-396.082 66.9784 85.3398
485.851 -14.76 43.1076
485.68 -18.3741 41.9394
-451.221 77.4971 -6.58526
-453.444 75.8183 -7.38035
-264.061 -19.066 148.579
22.0572 -175.583 9.32384
-266.304 -15.8705 148.464
-366.014 -60.468 -104.489
-370.273 -59.8987 -102.969
-384.075 39.2539 106.653
-382.87 43.0113 105.731
-432.414 86.1996 25.5612
-438.422 82.8835 23.9476
-416.302 98.3598 9.12274
81.5447 -97.3366 -143.831
53.7584 -10.398 -174.683
50.3919 -9.33898 -174.865
-413.846 99.3124 12.0247
-309.166 102.521 93.6115
-435.108 85.2011 23.2028
-267.04 -101.951 -108.864
-264.154 -104.513 -107.286
-172.429 6.31807 165.215
-172.055 2.37074 165.366
-381.457 -48.938 -103.761
-374.937 -48.1837 -106.973
-377.321 -50.3923 -104.91
462.556 -44.2826 53.1044
-363.874 96.4584 -73.9019
457.049 -47.5769 56.0128
69.2423 146.675 94.2092
[...]
POINT_DATA 41904
VECTORS F double
4.14076e-09 2.13403e-07 -7.42968e-09
1.44361e-08 2.11661e-07 -5.90421e-09
1.23606e-07 2.05372e-07 1.0116e-08
6.9221e-09 2.16779e-07 -9.12806e-09
-4.37967e-08 2.12227e-07 -2.78555e-08
-4.29611e-08 2.13003e-07 -2.48527e-08
-8.79696e-08 2.33474e-07 7.58812e-09
-7.82596e-08 2.33102e-07 4.09172e-09
-1.19073e-07 1.96715e-07 -5.51034e-08
-1.28741e-07 1.94231e-07 -5.63549e-08
-2.21548e-07 1.04093e-07 -1.72208e-08
2.23851e-07 1.73454e-07 -4.39929e-08
-2.24091e-07 1.04097e-07 -1.49455e-08
-1.39771e-07 1.55735e-07 4.8167e-09
-1.42298e-07 1.55675e-07 4.82617e-09
-1.81549e-07 1.26063e-07 4.25975e-09
-1.81522e-07 1.27054e-07 5.15132e-09
3.19309e-07 2.01874e-07 -1.07113e-07
2.00184e-07 1.68874e-07 -1.65246e-08
2.09435e-07 1.657e-07 -1.29678e-08
-1.78313e-07 1.30531e-07 2.7669e-08
-1.79158e-07 1.33507e-07 2.901e-08
-2.13799e-07 1.25812e-07 -6.01153e-08
-2.14905e-07 1.2844e-07 -6.19242e-08
-1.48216e-07 1.66398e-07 -1.94271e-08
-1.44587e-07 1.65928e-07 -1.63723e-08
1.96561e-07 1.83757e-07 2.87693e-08
1.98682e-07 1.8619e-07 2.93176e-08
-1.18057e-07 -4.96455e-08 2.27569e-08
-1.16642e-07 -5.10957e-08 2.39136e-08
-2.90008e-07 9.30466e-08 -5.83335e-08
1.72294e-07 1.87725e-07 8.53061e-09
-1.70618e-07 1.49173e-07 -3.48632e-08
-1.36542e-07 1.7346e-07 -1.95135e-08
-1.347e-07 1.72687e-07 -1.78027e-08
-1.61016e-07 1.68511e-07 -6.19416e-08
-1.65906e-07 1.63332e-07 -6.14767e-08
3.91874e-07 1.35509e-07 1.55931e-08
3.03233e-07 1.43982e-07 -1.14955e-08
3.12688e-07 1.44178e-07 -6.77771e-09
-3.4283e-08 -9.55985e-08 -1.75107e-08
-3.82346e-08 -9.64716e-08 -1.62097e-08
-1.36057e-07 1.48781e-07 1.18714e-08
-1.38402e-07 1.45078e-07 1.29868e-08
6.91907e-08 2.75114e-07 3.93194e-08
6.86533e-08 2.82368e-07 4.33389e-08
2.59259e-07 1.83069e-07 -6.58153e-08
2.59775e-07 1.84392e-07 -7.06439e-08
-6.7916e-09 1.82683e-07 3.85982e-09
4.39257e-09 1.86809e-07 3.44671e-09
-2.39754e-07 -4.41093e-08 2.74563e-09
-9.88693e-08 1.88749e-07 -4.27066e-08
-2.18356e-07 -5.40217e-08 -4.76038e-09
1.77864e-07 1.84543e-07 1.19615e-08
-9.30614e-08 1.93548e-07 -4.19904e-08
8.37491e-08 2.02163e-07 -3.50407e-09
9.575e-08 1.98089e-07 -2.53012e-09
2.38267e-07 1.68723e-07 3.27045e-08
2.35386e-07 1.71625e-07 3.17132e-08
3.42946e-08 -9.08959e-08 -4.79988e-08
3.45385e-08 -8.97163e-08 -4.91774e-08
1.33965e-07 1.99913e-07 1.11332e-08
1.42144e-07 1.99264e-07 1.01813e-08
3.51226e-08 1.93903e-07 -2.73327e-10
3.1249e-08 1.94611e-07 1.99533e-09
9.67502e-08 1.8962e-07 -2.02449e-08
9.78167e-08 1.95907e-07 -2.40855e-08
1.29615e-07 2.13793e-07 3.51011e-08
-2.49876e-07 4.47908e-09 -1.68234e-09
1.31214e-07 2.18284e-07 3.83025e-08
8.67047e-08 2.81677e-07 5.28368e-08
7.77755e-08 2.7773e-07 4.82336e-08
-9.34474e-08 1.95459e-07 -1.17884e-08
-9.96697e-08 1.92512e-07 -1.43788e-08
1.91272e-07 1.74565e-07 -4.97782e-09
1.99686e-07 1.72542e-07 -7.49517e-10
1.75933e-07 1.81412e-07 4.15483e-09
-3.14691e-07 7.13865e-08 3.22903e-08
-3.14898e-07 7.46117e-08 3.42955e-08
1.2742e-07 2.0301e-07 -3.48446e-08
3.49425e-08 2.13801e-07 -1.18912e-10
4.76434e-08 2.11142e-07 -8.24834e-10
1.49541e-07 1.79335e-07 -9.86454e-09
1.41033e-07 1.8326e-07 -1.12726e-08
-7.47154e-08 1.99818e-07 -4.73724e-09
-7.90596e-08 1.99989e-07 -5.87137e-09
1.98462e-07 1.88361e-07 3.83929e-08
1.95708e-07 1.86599e-07 3.4236e-08
-4.37768e-08 1.79605e-07 1.50524e-08
-2.10331e-07 -8.30745e-08 -7.6753e-09
-3.95142e-08 1.79192e-07 1.23625e-08
1.29061e-07 1.9173e-07 -5.79449e-09
-2.12501e-07 2.66966e-08 3.54028e-09
1.25803e-07 1.91899e-07 -3.9962e-09
-2.69853e-07 7.74199e-08 8.20974e-10
-2.70311e-07 7.57364e-08 -6.32378e-10
1.25489e-07 1.95501e-07 -3.13365e-08
3.79586e-07 1.47975e-07 -5.79261e-08
-1.06746e-07 1.83995e-07 -4.33065e-08
-1.00147e-07 1.89548e-07 -4.2735e-08
-8.76757e-08 1.97651e-07 -1.58659e-08
-9.82519e-08 1.9337e-07 -1.50374e-08
-2.48939e-07 9.49487e-09 -1.94999e-09
-2.14315e-07 -1.89013e-09 -3.75772e-10
-3.22792e-07 5.58723e-08 2.82082e-08
-3.24558e-07 5.29906e-08 2.58034e-08
4.77128e-07 1.26998e-07 -1.64284e-08
-2.06576e-07 4.3803e-08 6.04687e-09
4.79476e-07 1.27826e-07 -1.59425e-08
5.48191e-07 1.34542e-07 -8.41384e-08
-1.40636e-07 1.96777e-07 -6.16379e-08
-1.11537e-07 1.625e-07 9.93911e-09
-1.14414e-07 1.6219e-07 1.07045e-08
-1.95222e-07 -3.63037e-08 -2.19464e-08
1.75738e-07 2.03891e-07 -5.17439e-08
1.79473e-07 2.00236e-07 -5.4266e-08
4.54053e-07 1.28877e-07 2.37729e-08
4.64105e-07 1.29161e-07 1.61229e-08
7.07055e-08 3.09778e-07 1.05793e-07
8.36463e-08 3.05358e-07 1.08836e-07
-1.57127e-07 2.41172e-07 2.9503e-11
-1.6726e-07 2.30487e-07 -2.54643e-09
-6.67368e-08 1.99732e-07 -3.06455e-08
-6.57978e-08 1.99152e-07 -2.76886e-08
4.57368e-08 2.08249e-07 -1.21592e-09
-3.35532e-07 4.39851e-08 -2.54734e-08
-2.23178e-07 2.66769e-08 2.98635e-09
-3.33918e-07 4.59344e-08 -2.74822e-08
5.49968e-07 1.35424e-07 -9.28859e-08
9.39902e-08 2.76155e-07 -8.9618e-08
9.45697e-08 2.75275e-07 -8.37333e-08
5.36902e-07 1.38567e-07 -9.37916e-08
-3.14559e-07 5.90223e-08 2.24705e-08
-1.02452e-07 -3.88975e-08 1.51242e-08
-1.00978e-07 -3.85621e-08 1.52857e-08
-9.62406e-08 1.92254e-07 -5.77307e-08
-9.54518e-08 1.90943e-07 -5.78241e-08
3.25862e-07 2.67044e-07 1.75317e-07
3.23942e-07 2.62393e-07 1.72464e-07
3.04785e-07 1.96382e-07 8.97717e-08
-2.10471e-08 2.17679e-07 -6.97164e-09
-3.32841e-07 1.21324e-08 -5.14639e-09
-3.33679e-07 1.38861e-08 -6.78741e-09
-1.05392e-08 2.18131e-07 -5.76113e-09
-1.23729e-07 1.70911e-07 1.09631e-10
-3.47198e-08 -5.17554e-08 1.66288e-08
-3.59398e-08 -5.36762e-08 1.77807e-08
-2.40761e-07 1.50547e-07 4.44028e-08
-2.42216e-07 1.53438e-07 4.2917e-08
-1.15157e-07 1.75681e-07 2.73907e-09
4.20752e-08 2.08701e-07 -2.20949e-10
4.97738e-07 1.5388e-07 1.03854e-07
4.81682e-07 1.57135e-07 1.10945e-07
-9.0956e-08 -7.43241e-08 1.58836e-08
-9.21456e-08 -7.29919e-08 1.61051e-08
-8.10647e-08 -7.69045e-08 1.37565e-08
-8.42367e-08 -7.5e-08 1.38289e-08
-3.13581e-07 5.91093e-08 2.07001e-08
-2.73284e-07 -6.25376e-08 1.17341e-08
5.39707e-07 1.34797e-07 8.1946e-08
5.34428e-07 1.39437e-07 9.01901e-08
-6.36231e-09 2.51598e-07 -5.50641e-09
2.21589e-09 2.56958e-07 -1.58523e-09
-3.07155e-07 7.51709e-08 3.41032e-08
-3.09474e-07 7.186e-08 3.17124e-08
-3.21982e-07 9.68057e-09 -9.44476e-10
-3.22861e-07 1.02412e-08 -9.88936e-10
4.43378e-07 2.25608e-07 2.08525e-07
-2.04049e-07 -6.58677e-08 -8.38285e-09
4.44623e-07 2.2738e-07 2.10378e-07
-1.22664e-07 1.52497e-07 2.15434e-08
-2.72945e-07 -6.27635e-08 1.2717e-08
-2.4383e-07 1.7288e-07 -6.50444e-08
-2.43108e-07 1.69484e-07 -6.74535e-08
-3.15139e-07 6.02885e-08 2.26641e-08
6.70527e-08 1.8866e-07 -5.50138e-09
-2.15726e-07 1.17561e-08 1.73667e-09
3.46089e-07 1.65671e-07 -7.24217e-08
-2.1731e-07 1.9017e-08 2.52705e-09
1.82647e-07 2.96837e-07 1.20616e-07
-1.26863e-07 1.91303e-07 -5.59248e-08
-1.26566e-07 1.8747e-07 -5.39089e-08
-1.76909e-07 1.4582e-07 -4.53614e-08
5.19175e-08 -7.22981e-08 5.09366e-08
-2.02845e-07 -7.22612e-08 -3.36848e-08
-2.01491e-07 -7.41e-08 -3.39969e-08
-1.0575e-08 2.56835e-07 -2.67677e-08
-2.58917e-08 2.51829e-07 -2.28959e-08
-1.79897e-07 1.41239e-07 -4.39438e-08
2.05785e-07 2.31709e-07 8.05889e-08
2.04502e-07 2.32615e-07 7.58112e-08
-1.88263e-07 1.25058e-07 1.75921e-09
7.91881e-08 2.36569e-07 2.12622e-08
6.71154e-08 2.33661e-07 1.81629e-08
-1.93553e-07 1.1768e-07 1.71629e-08
-1.87147e-07 1.21666e-07 2.09036e-08
9.12264e-08 -4.3848e-08 1.72083e-08
-1.89182e-07 1.21803e-07 1.97011e-09
9.49839e-08 -4.35676e-08 1.44652e-08
2.67298e-07 1.65426e-07 4.64693e-08
2.77458e-07 1.64264e-07 4.25043e-08
5.37022e-07 1.54429e-07 -2.04515e-07
5.48906e-07 1.45291e-07 -1.98691e-07
1.86995e-07 2.84804e-07 -1.4035e-07
1.86633e-07 2.77371e-07 -1.34651e-07
-2.78716e-07 7.30991e-08 1.02839e-09
-2.81757e-07 7.19177e-08 -2.58372e-09
-7.36681e-08 2.22059e-07 -3.53491e-08
-7.39826e-08 2.21415e-07 -3.79144e-08
5.92543e-07 1.54376e-07 -1.84683e-07
5.91934e-07 1.50841e-07 -1.72579e-07
6.26953e-08 -5.62089e-08 -1.89154e-08
6.3227e-08 -5.51702e-08 -1.99145e-08
-2.32822e-07 -4.69127e-08 -3.75788e-08
-2.29462e-07 -4.87295e-08 -3.87317e-08
-1.94078e-08 1.82393e-07 7.43317e-09
-2.85864e-08 1.77996e-07 8.03108e-09
-1.33207e-07 1.71596e-07 -4.67e-08
-1.34057e-07 1.70044e-07 -4.98078e-08
-5.92443e-08 2.11082e-07 1.34558e-08
-7.02163e-08 2.05227e-07 1.45167e-08
-2.56911e-07 1.09465e-07 -6.43517e-08
-2.50583e-07 1.12656e-07 -6.60142e-08
8.65267e-09 -7.52477e-08 4.07381e-08
8.97177e-09 -7.91451e-08 4.21712e-08
-2.80768e-07 1.15399e-07 -6.80105e-08
-2.86503e-07 1.09537e-07 -6.39729e-08
-2.45112e-07 -2.7925e-08 -2.85799e-08
-2.45608e-07 3.73154e-09 9.03725e-10
-2.356e-07 -6.76778e-08 4.84802e-09
-2.49164e-07 -2.90004e-08 -3.12147e-08
3.33962e-08 2.98489e-07 4.62613e-08
3.41968e-08 3.02941e-07 4.64313e-08
1.92421e-07 2.81787e-07 -1.4712e-07
1.93008e-07 2.83756e-07 -1.44878e-07
-2.49288e-07 8.64497e-08 -9.0726e-09
-1.32184e-07 1.99139e-07 -5.9877e-08
1.20035e-07 2.43027e-07 4.27065e-08
1.21836e-07 2.42665e-07 4.79164e-08
-2.14697e-07 3.99608e-08 4.87844e-09
-2.16268e-07 3.07745e-08 3.82502e-09
-2.03975e-07 1.77088e-07 4.32994e-08
-1.96047e-07 1.79026e-07 4.10447e-08
-2.30875e-07 1.87136e-07 -6.05679e-08
-2.30598e-07 1.85254e-07 -6.1103e-08
-2.41191e-07 1.20493e-07 4.3447e-08
1.17735e-07 3.08616e-07 9.78808e-08
-2.44375e-07 1.15895e-07 4.08453e-08
-1.45335e-07 2.22973e-07 -5.72388e-08
-1.44269e-07 2.18497e-07 -5.89924e-08
-3.16371e-07 6.81105e-08 3.23259e-08
-3.1515e-07 7.09902e-08 3.41021e-08
-2.12812e-07 2.04717e-07 -5.82276e-08
-2.13081e-07 2.01956e-07 -6.14499e-08
-3.37651e-07 2.41252e-08 -1.11175e-08
-3.38175e-07 2.49335e-08 -1.12686e-08
4.39471e-07 1.32393e-07 -3.16858e-08
4.44789e-07 1.34548e-07 -4.16233e-08
-1.35369e-07 1.46881e-07 2.54014e-08
-1.35299e-07 1.46464e-07 2.2801e-08
-1.65593e-07 1.50734e-07 -3.48496e-08
-1.60657e-07 1.55112e-07 -3.6622e-08
-2.33264e-07 1.26784e-07 4.39011e-08
-2.36623e-07 1.22226e-07 4.22387e-08
-2.1461e-07 -2.94484e-08 4.28579e-09
5.49416e-08 2.50384e-07 -4.67469e-08
4.81677e-08 2.53238e-07 -4.32667e-08
3.90713e-07 2.26183e-07 1.57897e-07
3.70073e-07 2.35481e-07 1.63384e-07
-3.10151e-07 6.26202e-08 2.33743e-08
-3.13832e-07 6.07269e-08 2.12227e-08
-1.01166e-07 2.22832e-07 -4.95291e-08
-1.00021e-07 2.25739e-07 -4.65681e-08
-2.39524e-07 2.61592e-08 -3.52147e-09
5.75691e-07 1.6394e-07 1.59585e-07
5.75636e-07 1.63347e-07 1.65723e-07
-2.44766e-07 2.03258e-08 -2.89255e-09
-2.24231e-07 -2.74372e-08 3.04137e-09
-2.18909e-07 -2.53313e-08 3.21848e-09
2.10146e-07 1.92795e-07 -6.04346e-08
-2.0621e-07 5.39282e-08 7.4094e-09
-1.98004e-07 5.93839e-08 8.95458e-09
-1.88876e-07 -1.16543e-07 2.17111e-08
-1.8744e-07 -1.14032e-07 2.2814e-08
2.23759e-07 1.93165e-07 -6.10419e-08
2.5483e-07 1.67012e-07 -4.12755e-08
-1.22531e-08 2.16367e-07 -2.78064e-09
-1.10505e-07 2.02957e-07 2.47548e-08
-1.14243e-07 2.02436e-07 2.77321e-08
-3.36001e-07 3.53544e-08 -1.70685e-08
3.69542e-09 2.18261e-07 -1.77186e-09
1.9646e-07 1.79588e-07 -4.09872e-08
1.98758e-07 1.84602e-07 -4.48696e-08
2.02667e-07 1.81475e-07 -4.63122e-08
-7.34076e-08 2.03449e-07 -3.52064e-08
6.15498e-07 1.1135e-07 3.65736e-08
-2.3603e-07 9.43235e-08 -1.74579e-08
-7.35225e-08 2.0457e-07 -3.87726e-08
2.89998e-07 1.72899e-07 -6.44848e-08
-2.33911e-08 2.19955e-07 -3.66571e-09
6.44419e-08 1.87138e-07 -2.52715e-09
-2.48772e-07 1.08462e-07 -6.28905e-08
-2.53453e-07 1.0487e-07 -5.92406e-08
9.5657e-08 2.96877e-07 1.26423e-07
1.07274e-07 2.92394e-07 1.29182e-07
-7.21182e-08 2.07935e-07 -3.55727e-08
3.03737e-08 2.17352e-07 -2.34488e-09
1.0992e-07 2.91568e-07 -1.14943e-07
1.2136e-07 2.85646e-07 -1.17579e-07
-3.2293e-07 4.93668e-08 5.67981e-09
-3.22997e-07 4.87696e-08 7.43894e-09
3.86028e-08 2.19713e-07 4.97982e-10
6.89593e-08 1.89563e-07 -5.12354e-09
-1.91791e-07 1.25693e-07 -1.12689e-08
-1.8711e-07 1.27945e-07 -7.53536e-09
-1.88779e-07 1.28174e-07 -8.25469e-09
1.58872e-07 1.93984e-07 -4.01893e-08
1.66403e-07 1.89902e-07 -3.86066e-08
-2.08696e-07 -1.34931e-07 -1.1267e-08
1.68244e-07 1.96479e-07 -4.36713e-08
-1.63219e-07 1.5055e-07 -9.38992e-09
-1.62918e-07 1.5108e-07 -1.01683e-08
-1.66085e-07 1.46542e-07 -8.11932e-09
1.6196e-07 -5.73678e-08 5.76e-08
-2.77571e-07 7.42105e-08 -2.31734e-08
2.29171e-08 -5.53609e-08 1.16295e-08
-2.77538e-07 7.55308e-08 -2.1384e-08
1.27256e-07 -4.05422e-08 3.91847e-09
1.58359e-07 -6.17095e-08 6.44497e-08
1.65328e-07 -6.09015e-08 6.45738e-08
2.11792e-07 2.03632e-07 6.00627e-08
7.30501e-08 1.90167e-07 -3.39176e-09
-1.60083e-07 -1.21987e-07 -2.48591e-08
-1.60595e-07 -1.18243e-07 -2.38818e-08
8.13511e-08 1.92971e-07 -5.01627e-09
-2.22093e-07 -1.53154e-08 1.44567e-09
7.30632e-08 2.85476e-07 -8.85321e-08
5.4497e-08 2.81725e-07 -8.27183e-08
-2.00419e-07 1.18486e-07 2.53312e-08
-2.22087e-07 -8.13815e-09 4.20598e-10
-2.03091e-07 1.14751e-07 2.34648e-08
-1.35828e-07 1.69861e-07 -4.55642e-08
-2.07893e-09 2.9565e-07 2.93445e-08
-1.69357e-09 3.0049e-07 2.99654e-08
-1.41558e-07 1.68568e-07 -4.73498e-08
-1.36388e-07 1.69842e-07 -4.85619e-08
1.85687e-07 1.81947e-07 -3.73668e-08
8.17569e-08 2.36173e-07 2.62039e-08
8.14235e-08 2.37268e-07 2.32182e-08
-3.22429e-07 6.89094e-08 -4.32606e-08
-3.21725e-07 6.77824e-08 -4.19532e-08
-2.16068e-07 7.61442e-08 7.59477e-09
2.44612e-07 1.64951e-07 2.30856e-08
2.47784e-07 1.61682e-07 2.50818e-08
1.86708e-07 1.84459e-07 -4.21581e-08
1.85599e-07 1.85219e-07 -3.99049e-08
-2.41886e-08 -5.69828e-08 1.38679e-08
-2.7905e-08 -5.74311e-08 1.44043e-08
2.31677e-07 1.66418e-07 1.49283e-08
2.28008e-07 1.68668e-07 1.764e-08
-1.01074e-07 2.32502e-07 7.84253e-09
-3.02476e-07 -5.23108e-09 -1.09019e-08
-9.20312e-08 2.39406e-07 5.38134e-09
-1.28877e-07 1.98355e-07 -5.95178e-08
-1.29151e-07 1.94655e-07 -5.63744e-08
1.00882e-07 2.06929e-07 -3.16825e-08
1.15142e-07 2.03205e-07 -3.16164e-08
2.52467e-07 1.57408e-07 -7.92986e-09
2.44661e-07 1.6006e-07 -5.58842e-09
2.86282e-07 1.48094e-07 2.71015e-09
-2.68844e-07 -6.72913e-08 2.68779e-08
-2.23783e-07 -8.81029e-08 -3.18735e-09
-2.23566e-07 -8.56185e-08 -3.31514e-09
2.91362e-07 1.48767e-07 -9.83515e-10
2.98106e-07 2.02459e-07 -1.01191e-07
2.4839e-07 1.5636e-07 -3.88395e-09
-2.34767e-07 1.56908e-07 -7.64391e-08
-2.40913e-07 1.50336e-07 -7.38288e-08
-1.16974e-07 2.434e-07 -2.42544e-08
-1.3285e-07 2.41208e-07 -2.03807e-08
-1.06826e-07 2.04222e-07 -4.82385e-08
-1.05451e-07 2.08918e-07 -4.88518e-08
-1.06447e-07 2.05695e-07 -5.19315e-08
-5.3642e-08 -4.91215e-08 1.62438e-08
2.86015e-07 1.93075e-07 7.95915e-08
-5.70272e-08 -4.77957e-08 1.63735e-08
3.16653e-07 -6.92003e-08 7.92449e-08
3.20989e-07 -6.34642e-08 7.27548e-08
7.21159e-07 9.79821e-08 -7.75694e-08
7.14247e-07 1.02382e-07 -8.88064e-08
-5.59787e-08 -4.76518e-08 1.6964e-08
5.97997e-07 1.19046e-07 6.28011e-08
-1.49952e-07 1.66317e-07 -5.72001e-08
5.95766e-07 1.21615e-07 6.52229e-08
-2.94061e-07 1.01011e-07 4.14595e-08
-2.98316e-07 9.78569e-08 4.06518e-08
-2.94477e-07 1.01557e-07 4.12089e-08
-3.35659e-07 2.45087e-08 2.24743e-09
-3.35606e-07 2.43972e-08 1.70656e-09
-3.35455e-07 2.55568e-08 3.48082e-09
7.59358e-09 2.21643e-07 -8.99584e-09
1.25183e-08 2.2092e-07 -4.73197e-09
2.98172e-07 1.53237e-07 3.43717e-08
3.00602e-07 1.52499e-07 3.50363e-08
-1.81067e-08 2.41259e-07 -1.49805e-08
-1.37546e-08 2.45747e-07 -1.8427e-08
-1.27392e-07 2.63497e-07 -2.17933e-08
-1.14906e-07 2.65898e-07 -1.78345e-08
2.62808e-08 2.22876e-07 -2.35535e-09
-8.57295e-08 -4.60133e-08 1.31634e-08
-1.76719e-07 1.54148e-07 -6.11589e-08
-1.66034e-07 -5.58115e-08 -1.3182e-08
-1.66562e-07 -6.17118e-08 -1.44324e-08
-8.59177e-08 -4.62787e-08 1.3878e-08
-8.77513e-08 -4.47082e-08 1.38499e-08
-1.64401e-07 1.53506e-07 -4.16471e-08
-1.52145e-07 1.61822e-07 -4.27365e-08
-1.56448e-07 1.55922e-07 -4.29108e-08
-2.9071e-07 6.79809e-08 -7.46503e-09
-1.97818e-07 1.53371e-07 -7.01899e-08
-2.64876e-07 1.24221e-07 -7.08818e-08
-2.66883e-07 1.27863e-07 -7.18136e-08
-7.69566e-08 2.2826e-07 -3.79764e-08
-7.09388e-08 2.34072e-07 -3.60296e-08
-2.11914e-07 1.17199e-07 -3.38824e-08
-2.09435e-07 1.20018e-07 -3.62326e-08
-1.98025e-07 1.56058e-07 -7.26317e-08
-2.04028e-07 1.51182e-07 -7.07322e-08
-1.24416e-07 2.0112e-07 2.96947e-08
-1.24048e-07 1.94166e-07 2.7944e-08
2.81257e-07 2.44038e-07 -1.41901e-07
2.69095e-07 2.43133e-07 -1.36001e-07
-1.27951e-08 1.93331e-07 5.61654e-09
-8.14673e-09 1.92635e-07 2.24638e-09
3.37192e-07 1.41016e-07 -1.52678e-08
3.34537e-07 1.40744e-07 -9.78891e-09
-2.40052e-07 1.49875e-07 4.4162e-08
-2.39568e-07 1.50154e-07 4.52685e-08
3.36989e-07 1.40425e-07 -1.59318e-08
-8.08178e-08 1.65091e-07 1.45348e-08
-9.28232e-08 1.6514e-07 1.46721e-08
-1.63409e-07 1.44768e-07 3.18115e-08
-1.58772e-07 1.45553e-07 3.01858e-08
-9.33558e-08 1.62408e-07 1.44994e-08
1.41074e-07 2.28542e-07 4.63026e-08
1.3931e-07 2.22932e-07 4.50044e-08
1.49217e-07 2.24007e-07 4.84232e-08
-3.96041e-08 1.96586e-07 7.52455e-09
-4.29857e-08 1.96901e-07 1.08205e-08
-6.3649e-08 2.39775e-07 -3.33336e-08
-7.67554e-08 2.33448e-07 -3.9421e-08
5.95205e-07 1.32372e-07 -2.10551e-07
6.29115e-07 1.23903e-07 -2.02759e-07
-7.33701e-08 2.34168e-07 -3.56647e-08
-1.75138e-07 1.94975e-07 3.68221e-08
4.38593e-07 1.3589e-07 4.74265e-08
4.36014e-07 1.38772e-07 4.8156e-08
-1.65568e-07 1.98975e-07 3.42521e-08
-1.75648e-07 1.9392e-07 3.51631e-08
-9.19642e-08 1.77122e-07 2.03827e-08
-9.14309e-08 1.79653e-07 2.32336e-08
-1.02418e-07 1.73228e-07 2.28668e-08
-3.16525e-08 2.13169e-07 -2.13768e-08
2.7182e-07 1.83754e-07 6.73839e-08
2.73985e-07 1.80909e-07 6.94305e-08
-2.69998e-07 1.4771e-07 -6.2331e-08
-2.6863e-07 1.4444e-07 -6.26871e-08
-3.12094e-08 2.17077e-07 -2.38596e-08
-3.33339e-07 3.74873e-08 -8.19735e-09
4.74957e-07 1.96133e-07 -1.83446e-07
-2.51089e-07 -8.76368e-09 9.04904e-10
-2.53711e-07 -2.04198e-09 9.50467e-10
4.75581e-07 2.00137e-07 -1.92891e-07
-3.32126e-07 3.78557e-08 -6.27481e-09
-3.33216e-07 3.75278e-08 -5.18372e-09
7.80279e-08 -1.46446e-07 -9.84278e-08
6.09425e-08 2.6331e-07 2.76272e-08
6.04577e-08 2.68328e-07 3.23781e-08
-1.28355e-07 2.36804e-07 -5.09134e-08
-1.29105e-07 2.35134e-07 -4.87788e-08
1.54277e-07 2.14882e-07 4.66343e-08
1.55532e-07 2.19211e-07 4.57749e-08
-2.27504e-07 -8.0286e-08 -2.50246e-09
-2.31367e-07 -8.10898e-08 -1.03644e-09
-3.32066e-07 4.73798e-08 -2.53892e-08
-3.31039e-07 4.84607e-08 -2.59054e-08
-2.07522e-07 1.15361e-07 -1.42911e-08
-2.02596e-07 1.18699e-07 -1.34331e-08
-1.45314e-07 1.71407e-07 -5.74811e-08
-1.45192e-07 1.6949e-07 -5.4686e-08
-1.98169e-07 -1.28174e-07 1.88205e-08
-1.99139e-07 -1.25112e-07 1.78501e-08
-2.0547e-07 1.17137e-07 -1.71491e-08
-9.2712e-08 1.92376e-07 -2.70794e-08
2.85728e-07 1.47544e-07 -1.55219e-09
2.74897e-07 1.49616e-07 -5.9578e-09
4.20655e-07 1.91839e-07 -1.43841e-07
4.218e-07 1.96345e-07 -1.53115e-07
2.82309e-07 1.50533e-07 -4.11682e-09
1.89005e-07 2.01162e-07 5.10541e-08
-2.39396e-07 9.41569e-08 -2.70831e-08
-2.41305e-07 9.27e-08 -2.39156e-08
-5.20398e-08 2.66724e-07 -4.17752e-08
-1.9377e-07 1.36352e-07 -4.8802e-08
4.31875e-07 1.83029e-07 -1.36094e-07
-2.49132e-07 -7.51532e-08 9.4255e-10
4.37118e-07 1.81749e-07 -1.4016e-07
-6.21153e-08 2.6871e-07 -3.81041e-08
-1.23869e-07 1.80367e-07 -1.87494e-08
-1.87335e-07 -1.30634e-07 2.21741e-08
-1.86596e-07 -1.29071e-07 2.37704e-08
-1.5114e-07 1.61239e-07 -3.74086e-08
-1.56036e-07 1.56641e-07 -3.61245e-08
9.22659e-08 2.19819e-07 2.2163e-08
9.44339e-08 2.19972e-07 2.57693e-08
-6.00339e-08 2.63124e-07 -3.39243e-08
-2.38402e-07 -3.64003e-08 2.09264e-08
7.26048e-07 9.64312e-08 -5.91582e-08
7.27721e-07 9.36662e-08 -5.77283e-08
5.38329e-08 1.90627e-07 -9.22905e-09
6.35292e-08 1.9268e-07 -1.11219e-08
-2.41258e-07 -3.39766e-08 1.78802e-08
-1.10794e-07 -4.4409e-08 2.22562e-08
6.53873e-08 -7.09342e-08 -4.35449e-08
5.95008e-08 -7.20488e-08 -4.41573e-08
-3.10674e-07 6.70779e-08 -4.00118e-08
-3.09334e-07 6.92902e-08 -4.28213e-08
5.63738e-08 2.32855e-07 1.11704e-08
5.70167e-08 2.37498e-07 1.57471e-08
-1.67058e-07 2.3606e-07 -4.21441e-08
-1.62988e-07 2.43683e-07 -4.12844e-08
-5.21762e-08 -5.64316e-08 1.63451e-08
-5.68637e-08 -5.51162e-08 1.68836e-08
7.82179e-08 2.14169e-07 1.1689e-08
7.26416e-08 2.13338e-07 7.98881e-09
-2.46222e-07 1.5715e-07 -7.4355e-08
-2.46006e-07 1.54317e-07 -7.2639e-08
5.65248e-08 2.15359e-07 7.57049e-09
2.55556e-07 2.10696e-07 8.29398e-08