# vtk DataFile Version 2.0
S, Created by Mohamad Ibrahim Cheikh
ASCII
DATASET UNSTRUCTURED_GRID
POINTS 41904 double
-471.385 3.99898 -61.282
-470.208 7.15382 -62.0967
-487.609 41.6536 -11.4689
-430.81 2.65227 -90.8088
-416.671 -18.4927 -96.8416
-419.763 -16.7487 -95.5148
-281.162 -13.0925 145.349
-280.275 -9.52311 145.835
-381.024 -52.1692 -102.372
-380.949 -55.3791 -100.706
-410.19 -101.569 7.75372
-391.675 84.6208 70.9463
-408.584 -102.067 10.938
-473.1 -48.7404 34.6053
-474.118 -49.7008 31.3836
-442.01 -75.242 37.3502
-440.565 -74.7344 40.3401
-296.873 110.698 89.0598
-439.802 72.8357 44.6071
-437.456 75.6637 42.6827
-380.151 -77.7499 85.0761
-377.063 -77.0297 87.3824
-376.111 -101.455 -57.999
-373.646 -101.131 -60.4634
-481.914 -49.2268 -10.922
-483.713 -47.7374 -7.14248
-452.935 69.3329 -32.4398
-450.694 69.4857 -35.7631
317.724 -122.41 -60.2711
321.398 -120.76 -61.207
-246.517 -134.741 -73.353
-474.479 58.3729 -2.41916
-457.722 -66.644 -29.7369
-485.422 -43.733 -14.6503
-486.631 -42.996 -11.6043
-391.828 -71.9524 -83.6789
-389.347 -74.8964 -82.5058
-343.165 128.411 -8.30888
-392.259 107.933 22.1009
-390.036 109.552 18.6895
363.35 4.14331 -121.635
363.659 0.5833 -121.591
-455.815 -51.2315 53.9846
-453.031 -53.7378 54.4145
-322.3 34.0564 -130.761
-318.714 35.2591 -131.516
-350.251 95.5155 82.6652
-347.096 96.7456 82.8638
-461.522 0.840648 69.9809
-462.335 4.56167 69.1754
14.9122 -2.18907 175.909
-431.284 -41.2677 -80.6236
24.2743 1.02365 -175.792
-471.916 60.817 -3.38958
-433.019 -38.3373 -80.9313
-488.343 30.3156 29.3239
-486.434 34.1231 29.0233
-432.67 85.2039 -28.2294
-435.735 83.3084 -28.1159
334.692 71.2455 -110.388
331.874 73.4264 -110
-484.849 45.4768 -11.2748
-483.625 47.7233 -7.92484
-478.529 15.4408 51.9826
-480.891 13.7249 49.748
-411.76 39.9973 92.8365
-407.799 41.0255 94.5131
-423.431 49.6884 -80.9693
-14.654 -6.4192 175.808
-420.156 50.4632 -82.563
-317.677 41.9676 -129.843
-316.325 39.1357 -131.125
-497.167 -24.6861 -10.2366
-495.56 -27.3745 -12.6549
-460.565 67.182 22.195
-458.24 69.7796 19.9586
-471.429 60.5936 9.73957
-145.158 -124.401 113.669
-148.765 -123.852 113.698
-388.304 51.4998 99.3162
-498.798 15.2743 16.7961
-497.285 19.0352 18.3711
-459.264 54.1158 47.1595
-461.325 51.1096 48.0423
-500.135 -17.6437 6.3632
-499.993 -19.0031 2.84226
-438.762 71.3836 -48.0737
-442.176 70.155 -46.0075
-421.167 -16.3308 94.8284
42.7274 0.611952 -175.363
-419.378 -13.8132 96.1893
-477.994 45.2202 30.9583
-18.7603 8.90035 -175.652
-480.202 44.025 28.3909
-319.518 -132.132 31.9067
-316.202 -133.324 30.9799
-392.657 50.961 97.4819
-320.992 126.107 49.5821
-435.642 -44.2414 -76.0483
-437.73 -40.8627 -76.4701
-495.745 -23.3546 -18.4834
-494.736 -27.0806 -16.6167
-17.1118 -5.68151 175.806
-6.80243 15.8591 175.268
-147.785 -142.899 88.7805
-144.777 -144.291 87.1208
-291.579 142.884 12.2974
-26.8716 11.5581 -175.368
-290.84 142.723 15.8151
-232.315 150.498 41.4571
-355.237 -60.4036 -108.984
-469.524 -38.2164 50.2533
-471.213 -39.4845 47.2467
195.186 -157.098 40.3973
-365.611 68.6239 99.5055
-362.227 71.3603 99.0951
-304.852 139.784 -7.64235
-302.277 140.586 -4.99854
-179.583 63.1492 -151.789
-178.351 65.9773 -150.76
-161.299 -8.01083 -166.513
-158.53 -11.2517 -166.651
-460.326 -24.2204 -66.6807
-463.631 -22.8655 -64.3138
-493.891 18.5933 27.6765
-135.083 -156.122 -66.0898
-20.329 3.12655 -175.828
-137.344 -154.984 -68.1652
-228.564 151.12 41.7455
-249.895 61.3347 139.888
-252.734 58.7983 140.352
-234.983 149.429 43.4352
-202.808 -149.268 60.4923
378.876 -106.15 46.1909
380.394 -106.701 43.3049
-94.1034 47.9765 166.103
-90.6541 48.6365 166.146
-204.296 113.112 -114.332
-207.858 113.332 -113.323
-345.276 104.955 -73.245
-500.907 -1.06991 -16.0035
-44.7107 -157.804 -76.3498
-48.5211 -157.942 -75.7776
-500.288 1.92306 -18.1513
-486.765 -38.5663 21.9068
446.856 -12.6284 79.8094
444.293 -10.9415 81.7864
-222 -79.4905 136.468
-220.014 -76.972 138.293
-488.52 -34.901 23.23
-495.512 17.4207 24.7365
-260.522 142.997 -47.0996
-262.523 141.621 -49.8168
349.543 -76.0881 -101.134
346.268 -77.9239 -101.115
362.421 -67.0734 -101.961
359.812 -70.145 -101.021
-208.488 -149.495 57.4944
38.8795 -55.7456 -166.383
-242.739 149.797 -36.3729
-246.742 148.702 -37.5485
-357.928 1.27815 -123.651
-359.913 4.82612 -122.855
-200.419 -135.079 88.3846
-197.396 -136.849 86.4743
-44.7637 -143.507 100.68
-46.3914 -141.659 103.175
-135.289 135.669 -101.632
31.0183 8.40488 -175.464
-131.248 135.504 -102.498
-426.222 -49.1918 79.4659
40.9794 -59.0519 -165.177
-223.845 -83.9619 -133.386
-225.692 -86.9061 -131.1
-206.502 -148.756 60.2246
-462.16 26.5614 64.1902
-11.8889 7.08391 -175.808
-328.066 117.35 63.4677
-15.7195 6.592 -175.79
-239.973 78.651 -133.19
-390.812 -55.0971 -96.1302
-394.235 -55.0807 -94.4132
-436.926 -74.5614 -45.2114
347.3 90.96 89.0791
193.749 -120.66 108.725
197.323 -119.283 109.456
-285.91 18.4543 143.622
-284.939 14.3603 144.325
-433.979 -77.1462 -44.3416
-350.083 78.1422 -99.3226
-353.219 75.9846 -99.6367
-440.948 -77.7543 33.5477
-397.619 30.6323 -103.35
-397.009 27.0542 -104.628
-400.822 -85.9885 62.5503
-403.057 -83.1337 64.6171
385.042 108.782 31.4852
-437.78 -79.8523 33.7001
383.433 110.232 28.7246
-408.782 96.0667 -35.8991
-406.992 97.9212 -33.2832
-60.9224 151.803 86.473
-57.8063 153.321 84.0217
-209.184 88.8446 133.136
-213.003 88.2463 132.793
-303.116 -137.142 30.3171
-300.631 -138.328 27.8584
-377.438 -28.4399 -112.809
-373.884 -29.948 -113.863
-131.238 155.297 68.9207
-134.921 154.808 69.1508
455.396 69.6988 -26.9775
452.329 71.8661 -27.6018
141.076 -151.068 75.6167
143.619 -149.503 78.0998
-455.213 -4.58121 74.7338
-454.049 -8.01944 75.3084
-437.065 -55.3101 -67.3008
-433.305 -57.3577 -68.5524
-346.454 -15.5499 126.644
-345.125 -19.0797 126.606
-309.554 -122.413 -65.2629
-310.869 -120.08 -68.7397
365.948 59.83 104.884
362.357 59.6036 106.527
-233.761 -121.787 -97.2312
-230.717 -124.222 -95.0151
114.963 -167.541 35.8893
-10.7523 -11.864 -175.559
30.1406 -2.97794 175.658
112.066 -167.101 38.9313
-269.298 31.9175 -145.184
-265.396 31.8633 -146.073
-197.616 92.3826 132.892
-194.462 91.2283 134.252
-360.723 -121.038 19.8742
-355.301 -57.3311 -110.606
-375.031 46.7928 -107.549
-371.757 49.3649 -107.79
-25.6031 7.74272 -175.601
-21.9008 6.65351 -175.707
-251.681 -64.8686 137.887
-251.452 -61.4061 139.514
-220.207 -73.7086 -140.022
-216.408 -74.415 -140.373
-285.214 -102.601 102.419
-248.417 62.2211 -139.819
-282.625 -104.497 101.376
-300.341 -52.5717 -131.028
-303.075 -54.4646 -129.475
-161.918 -133.684 99.4724
-164.855 -132.416 100.572
-227.081 -64.6471 -143.121
-228.775 -67.5944 -141.419
-93.0299 -166.815 -45.706
-96.4196 -166.914 -44.471
-305.313 137.181 27.2906
-302.121 137.791 28.541
-409.191 -56.952 85.0474
-412.613 -55.7988 83.7778
-457.395 -64.9528 -33.8143
-459.561 -62.1778 -35.3987
-287.599 -97.4804 106.522
-284.77 -99.7445 105.35
8.09107 15.0794 175.33
-300.387 38.3671 135.856
-302.118 35.2823 136.221
-238.495 123.372 -93.763
-241.027 120.73 -96.3734
-214.575 -147.057 60.9355
-212.636 -148.712 57.6638
-341.91 -41.2648 -122.314
-345.583 -38.9242 -121.817
-25.4277 0.00358719 175.775
-181.681 150.944 -64.427
-178.001 151.776 -63.7257
-23.0191 -2.69995 175.795
6.25274 9.4686 175.731
5.38772 12.8491 175.52
-359.446 81.6987 92.1038
-31.2896 12.1351 -175.239
-33.0333 15.4665 -174.938
66.2485 16.5781 173.677
63.2526 19.42 173.52
-359.118 84.2864 89.9025
-390.64 92.8331 60.6236
-502.884 1.9239 3.25303
-316.702 -32.9537 132.704
-317.813 -35.6218 131.685
-131.176 -164.087 -44.0995
-502.653 6.44299 1.08975
-391.454 75.4659 80.7474
-387.938 75.8792 82.4203
-385.228 78.2274 81.7782
-421.84 -29.6931 -91.1477
-214.189 158.905 -10.4131
-385.787 -112.688 7.47185
-418.007 -31.2262 -92.7828
-352.748 103.906 70.3235
-342.185 2.16423 128.98
-465.258 25.0135 62.036
-325.058 -120.673 -58.9724
-322.605 -122.621 -56.5525
-150.122 76.0888 -149.758
-148.9 78.6997 -148.553
-415.216 -29.1108 -94.9791
-488.357 13.1461 -40.0548
-206.85 72.0799 143.325
-204.949 75.129 142.088
-202.976 -158.671 27.4872
-199.353 -158.96 29.0184
-489.528 15.9039 -37.2029
-466.992 27.0416 59.5398
-448.534 -78.5505 13.2262
-450.877 -75.5231 19.5801
-451.181 -76.3111 15.1699
-383.587 62.7309 95.0079
-388.655 64.7742 91.0321
149.498 -45.1798 161.86
-384.688 65.5932 92.4969
-474.093 -57.9719 9.86579
-474.682 -57.9316 5.7916
-471.286 -60.5126 11.005
270.545 139.875 49.4946
-311.745 -138.119 -0.845692
481.425 31.3137 40.2455
-315.531 -137.065 0.0942781
341.282 129.288 0.916406
266.812 138.449 55.6067
267.092 139.925 51.6047
-395.338 77.9393 -75.9377
-473.496 27.8932 52.4328
71.9338 21.185 -172.898
67.4953 21.3065 -173.102
-474.398 30.5532 49.8912
-0.368605 11.189 175.644
-222.899 58.0943 146.691
-222.225 54.2735 148.271
-379.325 -90.1214 72.3737
-4.12001 11.6657 175.607
-376.535 -92.3175 71.3826
-442.538 -55.5552 -62.5532
-264.04 20.1086 -148.446
-260.795 20.3991 -149.107
-443.554 -57.7573 -59.6083
-439.231 -56.9483 -64.1335
-397.01 70.9377 81.5272
-394.374 33.3017 -104.044
-391.734 31.8388 -105.71
-173.001 -143.907 -81.2567
-175.98 -144.818 -78.817
-45.2835 4.55976 -175.226
-436.35 86.2364 -15.1116
-432.555 88.4614 -15.6009
-393.757 72.256 82.2975
-391.702 70.9105 84.6354
485.274 -16.3072 43.3452
485.005 -19.9275 42.1858
-445.645 81.3679 -6.37486
-447.946 79.7429 -7.12101
-265.763 -14.5902 148.714
15.1171 -175.684 9.12529
-267.828 -11.2652 148.549
-368.897 -56.2151 -105.617
-373.162 -55.7177 -104.034
-381.576 43.5725 106.073
-380.061 47.2391 105.166
-426.455 89.813 25.3772
-432.62 86.5762 23.8002
-409.643 101.724 9.13278
76.1572 -98.6225 -143.316
50.1185 -11.8536 -174.723
46.757 -10.7431 -174.908
-407.097 102.676 11.9751
-302.564 106.29 92.0359
-429.225 88.8091 23.0881
-272.181 -98.6394 -110.346
-269.421 -101.335 -108.722
-173.918 10.8021 164.791
-173.89 6.82181 165.007
-383.812 -44.5479 -104.671
-377.24 -43.7237 -107.894
-379.67 -45.9755 -105.896
461.264 -45.6592 53.3142
-357.343 100.345 -72.6172
455.682 -48.9261 56.214
75.5626 145.49 95.4441
[...]
POINT_DATA 41904
VECTORS F double
2.02471e-08 1.96728e-07 -6.2303e-09
2.9838e-08 1.94135e-07 -5.29699e-09
1.34833e-07 1.94272e-07 3.72767e-09
2.15011e-08 1.80502e-07 -7.2166e-09
-2.76705e-08 1.7541e-07 -1.892e-08
-2.653e-08 1.76984e-07 -1.67602e-08
-4.18343e-08 1.55408e-07 4.09103e-09
-3.21151e-08 1.53961e-07 2.49727e-09
-9.90015e-08 1.59547e-07 -3.61927e-08
-1.08501e-07 1.58264e-07 -3.67807e-08
-2.15819e-07 1.0605e-07 -8.63766e-09
2.06763e-07 1.36119e-07 -2.26031e-08
-2.17643e-07 1.05927e-07 -6.909e-09
-1.32704e-07 1.62842e-07 7.23988e-09
-1.35569e-07 1.63009e-07 7.40407e-09
-1.76387e-07 1.3076e-07 7.85513e-09
-1.75598e-07 1.3125e-07 8.36271e-09
2.65248e-07 1.21336e-07 -4.25654e-08
1.9405e-07 1.50763e-07 -1.19321e-08
2.01182e-07 1.47663e-07 -9.32162e-09
-1.61661e-07 1.20172e-07 2.13852e-08
-1.61584e-07 1.21561e-07 2.17943e-08
-1.99921e-07 1.14043e-07 -4.07676e-08
-2.00193e-07 1.15494e-07 -4.17138e-08
-1.40609e-07 1.71575e-07 -1.37346e-08
-1.37134e-07 1.71806e-07 -1.12495e-08
1.95515e-07 1.63082e-07 1.43358e-08
1.96733e-07 1.63657e-07 1.44369e-08
-1.2265e-07 -4.82708e-08 1.8879e-08
-1.21488e-07 -4.96078e-08 1.97728e-08
-2.5069e-07 7.98111e-08 -4.34571e-08
1.76145e-07 1.75359e-07 1.59309e-09
-1.64233e-07 1.49127e-07 -2.47163e-08
-1.27656e-07 1.78296e-07 -1.43869e-08
-1.26006e-07 1.78113e-07 -1.30072e-08
-1.45005e-07 1.45032e-07 -4.15788e-08
-1.49609e-07 1.40587e-07 -4.11843e-08
3.21395e-07 1.05741e-07 9.05099e-09
2.70069e-07 1.21273e-07 -5.40172e-09
2.75897e-07 1.20709e-07 -2.62557e-09
-1.23904e-08 -8.0898e-08 -7.28717e-09
-1.67097e-08 -8.15785e-08 -6.50997e-09
-1.28278e-07 1.52759e-07 1.23631e-08
-1.31034e-07 1.48967e-07 1.35514e-08
8.70627e-08 1.79433e-07 2.04602e-08
8.69899e-08 1.83275e-07 2.33261e-08
2.28409e-07 1.2752e-07 -2.88594e-08
2.29122e-07 1.27383e-07 -3.12217e-08
4.70957e-09 1.7668e-07 1.68053e-09
1.5905e-08 1.79724e-07 1.1632e-09
-1.10869e-07 -1.57088e-08 9.55216e-10
-8.47886e-08 1.6678e-07 -2.98371e-08
-9.52964e-08 -1.78659e-08 -1.71512e-09
1.80869e-07 1.72056e-07 4.09252e-09
-7.89436e-08 1.70992e-07 -2.92866e-08
9.64308e-08 1.96738e-07 -6.7786e-09
1.07139e-07 1.92149e-07 -6.06684e-09
2.27618e-07 1.4664e-07 1.54762e-08
2.25213e-07 1.49264e-07 1.49536e-08
4.78655e-08 -7.42671e-08 -3.01648e-08
4.83116e-08 -7.30924e-08 -3.09449e-08
1.43823e-07 1.88771e-07 4.19306e-09
1.50816e-07 1.87666e-07 3.28879e-09
4.73999e-08 1.898e-07 -2.95574e-09
4.36649e-08 1.91354e-07 -1.1153e-09
1.00289e-07 1.56037e-07 -1.27676e-08
1.01391e-07 1.58739e-07 -1.53437e-08
1.34937e-07 1.71174e-07 1.86501e-08
-1.16843e-07 1.39338e-08 -6.83584e-10
1.36332e-07 1.73027e-07 2.08152e-08
1.01998e-07 1.81515e-07 2.81162e-08
9.50885e-08 1.78755e-07 2.52668e-08
-7.9842e-08 2.00785e-07 -9.45115e-09
-8.67389e-08 1.97538e-07 -1.14531e-08
1.90076e-07 1.6187e-07 -7.06635e-09
1.96787e-07 1.5937e-07 -4.03515e-09
1.78511e-07 1.70277e-07 -1.48437e-09
-2.51274e-07 5.28721e-08 1.85779e-08
-2.51531e-07 5.46006e-08 1.9184e-08
1.26232e-07 1.54385e-07 -1.9631e-08
5.21113e-08 2.12104e-07 -3.41408e-09
6.39188e-08 2.08668e-07 -4.37693e-09
1.51933e-07 1.66227e-07 -9.59772e-09
1.44768e-07 1.70112e-07 -1.07782e-08
-5.98967e-08 2.06401e-07 -4.06779e-09
-6.4302e-08 2.06399e-07 -4.91358e-09
1.95559e-07 1.6035e-07 1.95815e-08
1.93436e-07 1.60533e-07 1.71789e-08
-3.1051e-08 1.60446e-07 1.07469e-08
-9.30222e-08 -3.66982e-08 -2.90296e-09
-2.63579e-08 1.58999e-07 8.76348e-09
1.36842e-07 1.82876e-07 -8.44794e-09
-8.43852e-08 3.60292e-08 2.92902e-09
1.34161e-07 1.8383e-07 -7.23975e-09
-2.50437e-07 7.44771e-08 1.38062e-09
-2.50843e-07 7.29181e-08 3.51261e-10
1.24785e-07 1.51008e-07 -1.74051e-08
3.08694e-07 1.03732e-07 -1.91579e-08
-9.32408e-08 1.64864e-07 -3.05165e-08
-8.64068e-08 1.69861e-07 -3.02122e-08
-7.3397e-08 2.01057e-07 -1.30295e-08
-8.50472e-08 1.97588e-07 -1.20011e-08
-1.16334e-07 1.6628e-08 -8.48925e-10
-8.32573e-08 1.28579e-08 -1.55902e-09
-2.7178e-07 4.32156e-08 1.41702e-08
-2.73186e-07 4.10029e-08 1.23288e-08
3.62332e-07 9.05631e-08 -4.43242e-10
-7.76585e-08 4.69227e-08 4.54941e-09
3.62892e-07 9.05181e-08 1.73241e-10
3.92136e-07 8.05745e-08 -2.3471e-08
-1.1535e-07 1.55127e-07 -3.99461e-08
-1.02384e-07 1.67476e-07 1.02466e-08
-1.05697e-07 1.67785e-07 1.11578e-08
-1.90667e-07 -3.24133e-08 -1.32619e-08
1.65641e-07 1.44981e-07 -2.54738e-08
1.69022e-07 1.41621e-07 -2.63419e-08
3.52166e-07 9.48103e-08 1.42592e-08
3.5651e-07 9.4249e-08 1.12753e-08
1.20922e-07 1.8193e-07 5.81737e-08
1.30478e-07 1.78236e-07 5.91036e-08
-5.87841e-08 1.61326e-07 -7.89694e-10
-6.60872e-08 1.54527e-07 -2.73634e-09
-5.21825e-08 1.84877e-07 -2.30485e-08
-5.1087e-08 1.85706e-07 -2.09357e-08
6.11473e-08 2.05797e-07 -4.66056e-09
-2.82033e-07 4.06892e-08 -2.55434e-08
-9.32359e-08 3.49255e-08 1.94077e-09
-2.80676e-07 4.23701e-08 -2.70971e-08
3.93261e-07 8.03148e-08 -2.71289e-08
1.187e-07 1.56771e-07 -4.27766e-08
1.17373e-07 1.57733e-07 -4.02037e-08
3.87249e-07 8.25969e-08 -2.76652e-08
-2.75453e-07 5.01671e-08 1.07269e-08
-1.06164e-07 -4.63506e-08 9.55848e-11
-1.05504e-07 -4.60556e-08 -1.45127e-11
1.32825e-08 1.18203e-07 -3.32201e-08
1.35502e-08 1.19048e-07 -3.39443e-08
2.74812e-07 1.42065e-07 8.04294e-08
2.73581e-07 1.39915e-07 7.84907e-08
2.64016e-07 1.349e-07 4.09299e-08
-1.96547e-09 2.1716e-07 -6.98889e-09
-2.74174e-07 1.40507e-08 -9.38367e-09
-2.74754e-07 1.52749e-08 -1.02984e-08
8.56466e-09 2.16425e-07 -5.97384e-09
-1.14986e-07 1.79018e-07 2.34858e-09
-2.63836e-08 -6.27451e-08 8.15768e-09
-2.6716e-08 -6.36297e-08 9.25614e-09
-1.76328e-07 1.07229e-07 2.73413e-08
-1.75505e-07 1.08088e-07 2.59761e-08
-1.0549e-07 1.83654e-07 4.32122e-09
5.78122e-08 2.06715e-07 -3.79384e-09
3.68888e-07 9.65406e-08 4.32908e-08
3.61404e-07 9.84911e-08 4.68239e-08
-8.18542e-08 -6.72348e-08 1.59476e-08
-8.27251e-08 -6.6256e-08 1.63763e-08
-7.12869e-08 -6.9521e-08 1.47106e-08
-7.44646e-08 -6.746e-08 1.43699e-08
-2.75531e-07 5.07546e-08 9.6455e-09
-1.62356e-07 -2.98442e-08 5.35427e-09
3.89362e-07 8.57599e-08 3.50616e-08
3.86799e-07 8.81857e-08 3.80497e-08
1.66875e-08 1.80581e-07 -4.04738e-09
2.39307e-08 1.84609e-07 -1.33123e-09
-2.59962e-07 5.96404e-08 1.89782e-08
-2.61822e-07 5.70714e-08 1.71455e-08
-2.65534e-07 8.55304e-09 -2.2628e-09
-2.64339e-07 9.53773e-09 -1.45634e-09
3.47131e-07 1.15446e-07 9.75356e-08
-8.4066e-08 -2.45426e-08 -2.99508e-09
3.4816e-07 1.16412e-07 9.93159e-08
-1.11223e-07 1.4661e-07 1.77196e-08
-1.64488e-07 -3.14778e-08 6.25733e-09
-1.76692e-07 1.28417e-07 -4.45309e-08
-1.79583e-07 1.27644e-07 -4.6765e-08
-2.75906e-07 5.1235e-08 1.07268e-08
7.61156e-08 1.77531e-07 -6.36614e-09
-8.75037e-08 2.64766e-08 1.79129e-09
2.87426e-07 1.12994e-07 -2.7026e-08
-8.8317e-08 3.03873e-08 2.10638e-09
1.83861e-07 1.68967e-07 5.92205e-08
-1.08703e-07 1.58633e-07 -3.68156e-08
-1.08669e-07 1.56399e-07 -3.56894e-08
-1.68752e-07 1.40269e-07 -3.16654e-08
5.78679e-08 -5.87146e-08 3.23323e-08
-1.6989e-07 -5.62123e-08 -2.53177e-08
-1.68793e-07 -5.77549e-08 -2.56853e-08
2.53131e-08 1.63975e-07 -1.49e-08
1.40092e-08 1.61107e-07 -1.26439e-08
-1.7191e-07 1.359e-07 -3.04496e-08
1.93345e-07 1.55609e-07 3.89915e-08
1.91917e-07 1.56811e-07 3.62898e-08
-1.83005e-07 1.29607e-07 5.89815e-09
8.87323e-08 1.78034e-07 1.09727e-08
7.84299e-08 1.76169e-07 9.11739e-09
-1.82759e-07 1.15671e-07 1.5633e-08
-1.76813e-07 1.19274e-07 1.84251e-08
8.30638e-08 -3.9897e-08 1.3479e-08
-1.8421e-07 1.26281e-07 6.24899e-09
8.56473e-08 -3.95347e-08 1.17457e-08
2.4742e-07 1.37186e-07 2.21806e-08
2.53822e-07 1.35881e-07 1.97712e-08
4.04424e-07 6.84909e-08 -8.53514e-08
4.11e-07 6.36937e-08 -8.16076e-08
1.89328e-07 1.52312e-07 -6.52211e-08
1.89074e-07 1.48433e-07 -6.15095e-08
-2.56883e-07 6.97032e-08 8.6377e-10
-2.59302e-07 6.86249e-08 -1.83862e-09
-5.10495e-08 1.72044e-07 -2.24622e-08
-5.14588e-08 1.71049e-07 -2.43017e-08
4.15458e-07 7.14186e-08 -6.40694e-08
4.1499e-07 7.01595e-08 -5.79353e-08
6.27436e-08 -5.24888e-08 -5.93801e-09
6.33708e-08 -5.13977e-08 -6.67935e-09
-2.10457e-07 -3.52885e-08 -2.24278e-08
-2.07134e-07 -3.69216e-08 -2.40432e-08
-8.06021e-09 1.74821e-07 4.70595e-09
-1.72949e-08 1.71271e-07 5.47216e-09
-1.21481e-07 1.57555e-07 -3.28962e-08
-1.22554e-07 1.55567e-07 -3.53228e-08
-3.4111e-08 1.58039e-07 7.98009e-09
-4.32887e-08 1.53947e-07 8.75281e-09
-2.30441e-07 9.50833e-08 -4.4528e-08
-2.24606e-07 9.75357e-08 -4.60232e-08
2.60707e-08 -6.57165e-08 2.63507e-08
2.62539e-08 -6.82051e-08 2.72284e-08
-2.32657e-07 9.43419e-08 -4.96864e-08
-2.36995e-07 8.98937e-08 -4.70711e-08
-2.29552e-07 -2.22328e-08 -1.37635e-08
-1.1549e-07 1.91673e-08 -4.29319e-10
-1.09997e-07 -3.02913e-08 1.79724e-09
-2.32203e-07 -2.26809e-08 -1.55166e-08
6.96263e-08 1.86079e-07 2.50961e-08
7.02567e-08 1.88655e-07 2.55239e-08
1.95253e-07 1.48625e-07 -6.77722e-08
1.96599e-07 1.5079e-07 -6.76018e-08
-2.37054e-07 8.58579e-08 -3.87598e-09
-1.07062e-07 1.56385e-07 -3.89542e-08
1.24408e-07 1.72624e-07 2.1993e-08
1.26582e-07 1.71203e-07 2.49567e-08
-8.54953e-08 4.38288e-08 3.45867e-09
-8.65612e-08 3.83499e-08 2.77314e-09
-1.46784e-07 1.26317e-07 2.66239e-08
-1.38521e-07 1.27141e-07 2.5394e-08
-1.60361e-07 1.3677e-07 -4.11203e-08
-1.60017e-07 1.36187e-07 -4.1993e-08
-2.04042e-07 9.81241e-08 2.87318e-08
1.37991e-07 1.81138e-07 5.05926e-08
-2.06567e-07 9.45814e-08 2.69873e-08
-1.02816e-07 1.61943e-07 -3.6122e-08
-1.03339e-07 1.60194e-07 -3.77716e-08
-2.60811e-07 5.17181e-08 1.75291e-08
-2.59991e-07 5.37889e-08 1.86437e-08
-1.43116e-07 1.47092e-07 -3.86401e-08
-1.4617e-07 1.46594e-07 -4.11181e-08
-2.89248e-07 2.3975e-08 -1.54237e-08
-2.89696e-07 2.46502e-08 -1.5621e-08
3.42617e-07 9.47263e-08 -6.88066e-09
3.45104e-07 9.4845e-08 -1.06428e-08
-1.2264e-07 1.38185e-07 2.02946e-08
-1.22456e-07 1.38361e-07 1.83145e-08
-1.58815e-07 1.49828e-07 -2.47883e-08
-1.53396e-07 1.53982e-07 -2.66544e-08
-1.95521e-07 1.02312e-07 2.89982e-08
-1.98128e-07 9.8818e-08 2.79915e-08
-8.55575e-08 -4.14895e-09 8.40237e-10
7.73514e-08 1.58323e-07 -2.37728e-08
7.10601e-08 1.61226e-07 -2.24634e-08
3.10291e-07 1.2508e-07 6.79502e-08
2.98979e-07 1.30607e-07 7.20691e-08
-2.72239e-07 5.35876e-08 1.19566e-08
-2.75716e-07 5.21356e-08 9.97897e-09
-7.18808e-08 1.66915e-07 -3.17115e-08
-7.11094e-08 1.68891e-07 -2.92679e-08
-1.06306e-07 2.77278e-08 -1.88333e-09
4.05174e-07 8.718e-08 6.43652e-08
4.05496e-07 8.65266e-08 6.74104e-08
-1.1079e-07 2.32083e-08 -1.41967e-09
-9.39073e-08 -3.66385e-09 6.065e-10
-8.79814e-08 -1.78999e-09 4.61695e-10
1.92935e-07 1.36248e-07 -2.86719e-08
-7.73708e-08 5.24255e-08 5.32176e-09
-6.98745e-08 5.67214e-08 6.6302e-09
-7.51628e-08 -6.1432e-08 9.37407e-09
-7.28423e-08 -5.83373e-08 9.77993e-09
2.02885e-07 1.36145e-07 -2.8419e-08
2.30727e-07 1.3223e-07 -2.04628e-08
6.58423e-09 2.17973e-07 -4.27937e-09
-7.39946e-08 1.48188e-07 1.51787e-08
-7.88374e-08 1.48873e-07 1.69766e-08
-2.89726e-07 3.37775e-08 -2.01695e-08
2.27757e-08 2.18159e-07 -3.5938e-09
1.8415e-07 1.3942e-07 -2.10026e-08
1.85643e-07 1.41403e-07 -2.3203e-08
1.89037e-07 1.38676e-07 -2.36317e-08
-5.73058e-08 1.72683e-07 -2.3784e-08
4.23277e-07 7.11109e-08 1.92262e-08
-2.27684e-07 9.48266e-08 -9.12071e-09
-5.7601e-08 1.72872e-07 -2.64091e-08
2.52174e-07 1.23574e-07 -2.77209e-08
1.15867e-09 1.58466e-07 -2.28259e-09
7.34744e-08 1.77812e-07 -4.23075e-09
-2.27272e-07 9.60079e-08 -4.30843e-08
-2.30949e-07 9.30789e-08 -4.05241e-08
1.43779e-07 1.7259e-07 7.00439e-08
1.52089e-07 1.69152e-07 7.09488e-08
-5.51975e-08 1.73951e-07 -2.37724e-08
4.75694e-08 2.06733e-07 -3.1574e-09
1.39287e-07 1.61634e-07 -5.66764e-08
1.48104e-07 1.57046e-07 -5.68837e-08
-2.87367e-07 4.46626e-08 -1.98464e-09
-2.87295e-07 4.39468e-08 -9.02563e-10
5.60768e-08 2.08991e-07 -9.97804e-10
7.84008e-08 1.8023e-07 -6.57027e-09
-1.87959e-07 1.30669e-07 -4.34727e-09
-1.83038e-07 1.33424e-07 -1.39439e-09
-1.84863e-07 1.33421e-07 -1.98013e-09
1.52756e-07 1.46155e-07 -2.09939e-08
1.59272e-07 1.45296e-07 -2.01327e-08
-1.24758e-07 -8.88284e-08 -1.0687e-08
1.60698e-07 1.48147e-07 -2.32327e-08
-1.57833e-07 1.57335e-07 -4.07065e-09
-1.57572e-07 1.57594e-07 -4.7847e-09
-1.61191e-07 1.53204e-07 -2.71702e-09
1.31475e-07 -4.22171e-08 3.1322e-08
-2.57844e-07 7.13488e-08 -1.59071e-08
2.51053e-08 -6.31058e-08 1.23333e-08
-2.57744e-07 7.2633e-08 -1.439e-08
1.08139e-07 -3.49586e-08 1.42874e-09
1.29746e-07 -4.48145e-08 3.53601e-08
1.33644e-07 -4.43152e-08 3.54743e-08
2.01384e-07 1.53676e-07 2.93681e-08
8.29507e-08 1.82924e-07 -5.60033e-09
-5.55634e-08 -6.24346e-08 -1.04803e-08
-5.59008e-08 -5.99756e-08 -1.00508e-08
9.13154e-08 1.85054e-07 -7.02118e-09
-9.07325e-08 4.27553e-09 -2.95668e-10
1.09331e-07 1.61821e-07 -4.37471e-08
9.66796e-08 1.60031e-07 -4.08378e-08
-1.86101e-07 1.12203e-07 2.02996e-08
-9.0857e-08 7.46357e-09 -7.56797e-10
-1.88476e-07 1.08913e-07 1.91354e-08
-1.24794e-07 1.583e-07 -3.25005e-08
4.21833e-08 1.85833e-07 1.59869e-08
4.24537e-08 1.89945e-07 1.68952e-08
-1.31112e-07 1.58288e-07 -3.39273e-08
-1.25447e-07 1.57482e-07 -3.46526e-08
1.75614e-07 1.4302e-07 -1.97432e-08
9.15278e-08 1.76476e-07 1.40101e-08
9.07546e-08 1.76222e-07 1.1901e-08
-2.683e-07 6.00639e-08 -3.64382e-08
-2.68343e-07 5.95114e-08 -3.59922e-08
-8.52188e-08 6.56299e-08 4.40409e-09
2.32419e-07 1.4575e-07 1.00921e-08
2.35063e-07 1.4271e-07 1.12731e-08
1.76718e-07 1.43422e-07 -2.2405e-08
1.75109e-07 1.43018e-07 -2.06051e-08
-2.41426e-08 -6.81385e-08 7.45726e-09
-2.84039e-08 -6.82496e-08 7.74177e-09
2.23162e-07 1.50089e-07 5.73053e-09
2.20383e-07 1.5221e-07 7.21532e-09
-4.80003e-08 1.52766e-07 4.48566e-09
-2.71498e-07 -3.21463e-09 -6.82355e-09
-4.17631e-08 1.57059e-07 2.69191e-09
-1.07039e-07 1.58776e-07 -3.87368e-08
-1.07295e-07 1.56245e-07 -3.65623e-08
1.04663e-07 1.55585e-07 -1.78154e-08
1.16132e-07 1.51849e-07 -1.68257e-08
2.3583e-07 1.38725e-07 -5.76621e-09
2.30347e-07 1.42245e-07 -4.8106e-09
2.60532e-07 1.28421e-07 3.06019e-10
-1.91217e-07 -4.30088e-08 1.71561e-08
-1.07352e-07 -4.272e-08 -8.71883e-10
-1.07145e-07 -4.07903e-08 -1.00132e-09
2.63293e-07 1.27963e-07 -1.33651e-09
2.51893e-07 1.23663e-07 -4.14316e-08
2.33309e-07 1.39023e-07 -3.72616e-09
-1.91522e-07 1.22807e-07 -5.19406e-08
-1.96163e-07 1.17964e-07 -5.0435e-08
-2.70059e-08 1.48889e-07 -1.32492e-08
-4.01659e-08 1.48185e-07 -1.13086e-08
-8.58483e-08 1.63909e-07 -3.12196e-08
-8.32582e-08 1.65714e-07 -3.15151e-08
-8.56088e-08 1.64813e-07 -3.39765e-08
-5.37758e-08 -6.10595e-08 4.66958e-09
2.5234e-07 1.36217e-07 3.62025e-08
-5.6716e-08 -5.99798e-08 4.08418e-09
2.27873e-07 -3.58658e-08 3.25849e-08
2.31679e-07 -3.17377e-08 2.75208e-08
4.67986e-07 5.26549e-08 -1.68628e-08
4.64767e-07 5.4712e-08 -2.08844e-08
-5.59061e-08 -5.96135e-08 4.60061e-09
4.15356e-07 7.49897e-08 2.83823e-08
-1.36369e-07 1.46862e-07 -3.93145e-08
4.13791e-07 7.64875e-08 2.90822e-08
-2.29837e-07 7.38041e-08 2.48065e-08
-2.34069e-07 7.12842e-08 2.37921e-08
-2.30092e-07 7.38762e-08 2.4243e-08
-2.95566e-07 2.22748e-08 -6.00852e-09
-2.95756e-07 2.23737e-08 -6.45714e-09
-2.95463e-07 2.30882e-08 -5.11592e-09
2.22483e-08 1.82927e-07 -6.82596e-09
2.73e-08 1.81092e-07 -3.99705e-09
2.6819e-07 1.27901e-07 1.5874e-08
2.69756e-07 1.27466e-07 1.63321e-08
1.47423e-08 1.59008e-07 -8.14961e-09
1.79907e-08 1.62184e-07 -1.04824e-08
-5.78214e-08 1.76763e-07 -1.37063e-08
-4.63513e-08 1.77784e-07 -1.15015e-08
3.99364e-08 1.81926e-07 -2.72679e-09
-8.019e-08 -5.62659e-08 -9.27691e-10
-1.6327e-07 1.37227e-07 -4.14864e-08
-5.10798e-08 -1.62868e-08 -3.74378e-09
-5.14303e-08 -1.98204e-08 -4.40434e-09
-7.88591e-08 -5.62325e-08 -3.18188e-11
-8.21197e-08 -5.47787e-08 -5.80695e-10
-1.56168e-07 1.48683e-07 -2.94666e-08
-1.43091e-07 1.56106e-07 -3.0908e-08
-1.47933e-07 1.50297e-07 -3.07882e-08
-2.66625e-07 6.46646e-08 -6.20988e-09
-1.74087e-07 1.27815e-07 -4.74201e-08
-2.21398e-07 1.01306e-07 -5.08335e-08
-2.21458e-07 1.03067e-07 -5.07058e-08
-5.0171e-08 1.70119e-07 -2.40148e-08
-4.5063e-08 1.7458e-07 -2.2516e-08
-2.05602e-07 1.16363e-07 -2.17287e-08
-2.03266e-07 1.19049e-07 -2.35911e-08
-1.74091e-07 1.29508e-07 -4.90454e-08
-1.79446e-07 1.25575e-07 -4.75142e-08
-8.67266e-08 1.47444e-07 1.81866e-08
-8.6618e-08 1.43007e-07 1.7347e-08
2.43789e-07 1.3411e-07 -6.02372e-08
2.36129e-07 1.33357e-07 -5.73186e-08
-1.75709e-11 1.64921e-07 3.15009e-09
5.24001e-09 1.62914e-07 9.97266e-10
2.89667e-07 1.13852e-07 -4.97846e-09
2.88703e-07 1.14915e-07 -2.93414e-09
-1.77825e-07 1.07432e-07 2.70501e-08
-1.77435e-07 1.0786e-07 2.80102e-08
2.90264e-07 1.13949e-07 -5.62296e-09
-7.05002e-08 1.63584e-07 1.22333e-08
-8.23807e-08 1.64481e-07 1.26112e-08
-1.44062e-07 1.27722e-07 2.28896e-08
-1.38546e-07 1.27529e-07 2.16614e-08
-8.354e-08 1.63309e-07 1.29378e-08
1.42466e-07 1.69029e-07 2.41822e-08
1.41366e-07 1.66642e-07 2.33848e-08
1.50155e-07 1.67605e-07 2.52511e-08
-2.12161e-08 1.5785e-07 4.47325e-09
-2.53639e-08 1.59518e-07 6.62466e-09
-3.71129e-08 1.76434e-07 -2.07265e-08
-4.99091e-08 1.73445e-07 -2.47189e-08
4.3325e-07 5.62698e-08 -8.62796e-08
4.47976e-07 5.17383e-08 -8.12905e-08
-4.53906e-08 1.72358e-07 -2.23292e-08
-1.1826e-07 1.36384e-07 2.25007e-08
3.44393e-07 9.90622e-08 2.2566e-08
3.42418e-07 1.01056e-07 2.26538e-08
-1.0995e-07 1.38721e-07 2.08471e-08
-1.18717e-07 1.3517e-07 2.12041e-08
-7.14446e-08 1.47543e-07 1.37134e-08
-7.11535e-08 1.48696e-07 1.56068e-08
-8.09409e-08 1.43792e-07 1.54523e-08
-1.5624e-08 1.7788e-07 -1.47945e-08
2.45637e-07 1.37478e-07 3.08275e-08
2.47426e-07 1.35178e-07 3.19018e-08
-1.99473e-07 1.12367e-07 -4.43694e-08
-1.99805e-07 1.10981e-07 -4.52733e-08
-1.5317e-08 1.79809e-07 -1.6358e-08
-2.94551e-07 3.51076e-08 -1.36658e-08
3.57072e-07 9.56511e-08 -6.86034e-08
-1.22819e-07 1.14217e-08 -7.53659e-10
-1.24245e-07 1.5042e-08 -8.5571e-10
3.57591e-07 9.69703e-08 -7.32933e-08
-2.93822e-07 3.53626e-08 -1.23416e-08
-2.94738e-07 3.49128e-08 -1.14464e-08
8.84515e-08 -9.12614e-08 -5.16403e-08
7.72629e-08 1.80284e-07 1.4454e-08
7.75205e-08 1.82479e-07 1.76517e-08
-8.35446e-08 1.68874e-07 -3.20637e-08
-8.42415e-08 1.66961e-07 -3.03903e-08
1.55458e-07 1.65925e-07 2.43607e-08
1.55708e-07 1.67204e-07 2.35056e-08
-1.09505e-07 -3.74415e-08 -7.17121e-10
-1.14437e-07 -3.81696e-08 -7.84116e-11
-2.87032e-07 4.38465e-08 -2.50479e-08
-2.85187e-07 4.48051e-08 -2.56916e-08
-2.03181e-07 1.18691e-07 -6.4729e-09
-1.98583e-07 1.22488e-07 -5.84342e-09
-1.31819e-07 1.51372e-07 -3.95723e-08
-1.31765e-07 1.50437e-07 -3.7667e-08
-8.58784e-08 -6.97901e-08 7.86437e-09
-8.64621e-08 -6.84635e-08 7.45249e-09
-2.01313e-07 1.20567e-07 -8.73309e-09
-7.92851e-08 1.88755e-07 -2.12043e-08
2.59465e-07 1.27546e-07 -1.66937e-09
2.51924e-07 1.30103e-07 -4.23518e-09
3.25504e-07 1.04239e-07 -5.2495e-08
3.26245e-07 1.05786e-07 -5.7097e-08
2.56873e-07 1.30113e-07 -3.13662e-09
1.84132e-07 1.56691e-07 2.55693e-08
-2.30356e-07 9.37008e-08 -1.63659e-08
-2.31783e-07 9.22204e-08 -1.42109e-08
1.76729e-08 1.5927e-07 -2.22236e-08
-1.84988e-07 1.29802e-07 -3.3437e-08
3.31624e-07 1.00941e-07 -4.81586e-08
-1.24879e-07 -3.67456e-08 -7.93094e-11
3.34866e-07 1.00943e-07 -5.03463e-08
8.54098e-09 1.61677e-07 -2.07408e-08
-1.13588e-07 1.84877e-07 -1.4257e-08
-7.74508e-08 -7.22548e-08 9.57495e-09
-7.53636e-08 -6.96454e-08 1.0298e-08
-1.42876e-07 1.58921e-07 -2.75863e-08
-1.48234e-07 1.54513e-07 -2.62646e-08
1.01177e-07 1.75592e-07 1.13754e-08
1.03895e-07 1.76978e-07 1.40618e-08
9.28608e-09 1.5902e-07 -1.80497e-08
-2.12227e-07 -3.13025e-08 1.87634e-08
4.68578e-07 5.33247e-08 -1.06006e-08
4.69862e-07 5.17263e-08 -1.00103e-08
6.18089e-08 1.62879e-07 -6.68788e-09
7.02389e-08 1.64079e-07 -8.22585e-09
-2.14161e-07 -2.94702e-08 1.67765e-08
-1.20214e-07 -4.45787e-08 1.44667e-08
6.84722e-08 -5.91133e-08 -2.68453e-08
6.42289e-08 -5.99047e-08 -2.7125e-08
-2.73045e-07 6.06579e-08 -3.3015e-08
-2.72228e-07 6.23963e-08 -3.45031e-08
6.84269e-08 1.78505e-07 5.09881e-09
6.97699e-08 1.80167e-07 8.23017e-09
-9.67329e-08 1.641e-07 -2.74007e-08
-9.41594e-08 1.68753e-07 -2.63387e-08
-3.89818e-08 -6.49821e-08 6.30036e-09
-4.33588e-08 -6.35265e-08 6.4136e-09
9.23596e-08 1.96522e-07 6.70516e-09
8.65023e-08 1.95201e-07 3.89801e-09
-1.93785e-07 1.21982e-07 -5.18817e-08
-1.93665e-07 1.19807e-07 -5.06348e-08
7.18699e-08 1.9823e-07 4.19039e-09
2.3098e-07 1.46696e-07 3.91631e-08
3.54775e-07 9.08098e-08 -9.48708e-09