# vtk DataFile Version 2.0
S, Created by Mohamad Ibrahim Cheikh
ASCII
DATASET UNSTRUCTURED_GRID
POINTS 41904 double
-470.704 8.82569 -61.4174
-469.297 11.9104 -62.21
-484.117 46.3954 -11.3797
-430.125 7.00189 -90.9747
-417.202 -14.2527 -97.2777
-420.264 -12.4652 -95.8998
-281.906 -9.49066 145.452
-280.775 -5.96674 145.906
-383.32 -48.2986 -103.218
-383.483 -51.5325 -101.567
-415.503 -98.9044 7.56523
-386.533 87.8123 70.519
-413.942 -99.405 10.7926
-476.28 -44.6325 34.807
-477.371 -45.5876 31.5895
-446.317 -71.9466 37.5725
-444.848 -71.4276 40.575
-290.412 113.37 88.3041
-434.935 76.4657 44.3738
-432.424 79.2183 42.5102
-384.039 -74.7702 85.6073
-380.946 -74.0193 87.9209
-380.983 -98.6253 -58.9793
-378.521 -98.2672 -61.4652
-485.294 -44.8991 -11.2434
-487.006 -43.4024 -7.40225
-448.027 73.2716 -32.1247
-445.761 73.4307 -35.449
314.522 -123.64 -59.8146
318.224 -122.023 -60.73
-252.611 -132.761 -74.4175
-470.014 62.6405 -2.3793
-461.715 -62.8991 -30.3288
-488.465 -39.2385 -14.9889
-489.633 -38.5045 -11.9085
-395.299 -68.3868 -84.6649
-392.933 -71.4397 -83.4838
-335.43 130.903 -8.07892
-385.641 110.828 22.0346
-383.291 112.43 18.6824
363.098 2.13677 -121.779
363.293 -1.43879 -121.718
-458.884 -47.3901 54.3089
-456.173 -49.9928 54.7692
-319.983 38.1538 -130.325
-316.397 39.4394 -131.013
-344.624 98.4274 82.1434
-341.45 99.649 82.2933
-461.233 5.19861 70.026
-461.765 8.98529 69.2085
12.5646 -2.35511 175.929
-433.247 -37.1703 -81.3252
22.3225 0.746155 -175.825
-467.341 65.0036 -3.2917
-434.833 -34.1382 -81.6175
-485.771 35.142 29.1662
-483.609 38.8322 28.8836
-427.017 88.7326 -27.895
-430.139 86.8997 -27.7933
336.001 69.4228 -111.061
333.197 71.6351 -110.69
-481.146 50.083 -11.1752
-479.756 52.2983 -7.84685
-477.17 20.1158 51.9137
-479.622 18.4427 49.7217
-409.149 43.7056 92.5773
-405.16 44.7858 94.1952
-419.99 53.755 -80.5648
-17.112 -5.89246 175.799
-416.681 54.5645 -82.1096
-315.001 46.0973 -129.239
-313.814 43.2033 -130.586
-498.966 -19.6365 -10.4535
-497.539 -22.4061 -12.9196
-455.778 71.1119 22.0497
-453.298 73.6463 19.8828
-466.91 64.7393 9.7122
-151.183 -123.076 114.149
-154.797 -122.489 114.188
-385.072 55.1036 98.9222
-497.283 20.5103 16.7148
-495.488 24.1789 18.2654
-455.39 58.1489 46.9578
-457.619 55.2383 47.8115
-501.417 -12.4584 6.27633
-501.386 -13.8176 2.7352
-433.865 75.2274 -47.652
-437.329 74.0115 -45.6363
-421.771 -12.4206 95.0921
40.8107 -0.111261 -175.42
-419.865 -9.94347 96.4069
-474.462 49.6838 30.7691
-20.398 9.90475 -175.576
-476.733 48.5164 28.2282
-325.67 -130.267 31.9577
-322.364 -131.498 31.0064
-389.46 54.4972 97.1385
-313.547 128.486 49.3061
-437.818 -40.181 -76.7687
-439.73 -36.6808 -77.1817
-497.381 -18.3094 -18.7864
-496.672 -22.1135 -16.8962
-19.5574 -5.09158 175.793
-8.42328 16.3822 175.211
-154.388 -141.811 89.1485
-151.416 -143.258 87.443
-282.98 144.979 12.38
-28.3307 12.8146 -175.253
-282.232 144.812 15.9142
-223.099 152.283 41.1372
-357.922 -56.649 -109.921
-471.925 -34.0081 50.5224
-473.7 -35.2664 47.5388
190.32 -157.902 40.1047
-361.442 71.9511 99.0188
-357.977 74.6072 98.5933
-296.466 141.993 -7.29797
-293.803 142.778 -4.70947
-176.281 67.2369 -150.501
-174.825 69.9729 -149.458
-162.319 -4.19832 -166.531
-159.728 -7.59588 -166.718
-461.459 -19.6558 -67.2221
-464.735 -18.2728 -64.8053
-492.167 23.6657 27.5639
-141.972 -155.093 -66.7416
-22.186 4.09922 -175.781
-144.198 -153.912 -68.8574
-219.321 152.895 41.3533
-246.709 64.7666 139.031
-249.589 62.2613 139.545
-225.866 151.256 43.0332
-209.543 -148.012 60.7679
376.073 -107.377 46.1592
377.604 -107.922 43.269
-93.2397 50.8036 165.32
-89.787 51.5008 165.338
-197.589 116.178 -112.689
-201.18 116.353 -111.726
-338.843 108.049 -72.4194
-500.723 4.32713 -16.1592
-51.4149 -157.423 -76.6181
-55.2389 -157.533 -76.0647
-499.845 7.29315 -18.2798
-489.482 -34.0485 21.9828
446.18 -14.3203 79.9869
443.612 -12.6517 81.9921
-226.083 -76.9025 137.128
-224.07 -74.368 138.919
-490.989 -30.2706 23.3528
-493.869 22.519 24.644
-251.81 145.169 -46.2466
-253.965 143.837 -48.8914
347.435 -77.7748 -100.739
344.139 -79.5865 -100.709
360.581 -68.8235 -101.593
357.893 -71.8419 -100.663
-215.229 -148.224 57.7432
35.1921 -56.3332 -166.286
-233.588 151.735 -35.6672
-237.647 150.692 -36.7893
-357.328 5.51204 -123.747
-359.137 9.15207 -122.887
-206.72 -133.597 88.8597
-203.744 -135.43 86.9045
-51.2222 -143.244 100.678
-52.8087 -141.368 103.197
-126.923 138.137 -99.6089
29.3387 7.97225 -175.519
-122.856 137.993 -100.429
-428.847 -45.5467 79.908
37.2279 -59.6861 -165.057
-227.944 -80.8472 -134.456
-229.876 -83.8019 -132.226
-213.248 -147.474 60.4986
-460.114 30.8941 64.0502
-13.6089 7.86279 -175.76
-321.096 119.919 63.0281
-17.4575 7.45933 -175.736
-235.322 82.3751 -131.949
-393.359 -51.2328 -96.9917
-396.783 -51.2675 -95.2504
-441.029 -71.0566 -45.9718
348.858 89.4762 89.8331
189.519 -121.995 108.147
193.118 -120.654 108.869
-285.011 22.185 143.313
-284.305 18.0313 144.066
-438.164 -73.7515 -45.0729
-345.278 81.696 -98.519
-348.451 79.5681 -98.8923
-445.424 -74.4869 33.7225
-395.299 34.8193 -103.114
-394.936 31.2037 -104.433
-405.271 -83.093 62.9524
-407.355 -80.1493 65.0861
387.236 107.725 31.8228
-442.287 -76.6701 33.884
385.689 109.185 29.022
-402.681 99.3395 -35.4305
-400.749 101.161 -32.8664
-51.0946 153.195 84.7808
-47.8306 154.607 82.4162
-204.328 92.1304 131.82
-208.153 91.4464 131.563
-309.427 -135.397 30.3557
-307.003 -136.61 27.83
-378.525 -24.3159 -113.326
-374.981 -25.8513 -114.423
-121.435 156.762 67.7962
-125.13 156.249 68.1553
457.074 68.2939 -27.0951
454.025 70.4913 -27.7372
135.8 -151.902 75.1263
138.423 -150.377 77.5686
-455.243 -0.272624 74.8513
-454.312 -3.79175 75.4453
-439.959 -51.4077 -68.082
-436.226 -53.5066 -69.3932
-347.088 -11.8118 126.836
-345.983 -15.4337 126.816
-315.163 -120.059 -66.3399
-316.33 -117.667 -69.8537
366.709 58.1572 105.498
363.122 57.8737 107.16
-239.359 -119.457 -98.4459
-236.424 -122.003 -96.1662
109.183 -168.075 35.6014
-13.1769 -11.2663 -175.579
27.7928 -3.49096 175.696
106.228 -167.643 38.6051
-267.333 36.1454 -144.637
-263.416 36.1496 -145.513
-192.604 95.5744 131.529
-189.408 94.4825 132.879
-366.556 -118.886 19.7992
-357.78 -53.5517 -111.518
-371.854 50.7959 -107.083
-368.526 53.3304 -107.259
-27.2619 8.92679 -175.514
-23.5866 7.7084 -175.637
-255.033 -61.8405 138.523
-254.593 -58.364 140.121
-223.88 -70.4035 -141.007
-220.071 -71.1201 -141.381
-290.105 -100.189 103.122
-244.821 66.2553 -138.737
-287.578 -102.172 102.038
-302.644 -48.7102 -131.869
-305.397 -50.6378 -130.357
-168.215 -132.393 99.9191
-171.133 -131.074 101.044
-230.316 -61.1082 -144.04
-232.095 -64.0617 -142.397
-100.139 -166.2 -46.1081
-103.539 -166.282 -44.876
-297.133 139.37 27.2562
-293.888 139.975 28.4375
-412.103 -53.524 85.5509
-415.521 -52.3653 84.2334
-461.252 -61.1932 -34.4079
-463.276 -58.3145 -36.0395
-292.27 -94.9717 107.229
-289.505 -97.3208 106.035
6.38786 15.2019 175.328
-298.247 41.9354 135.378
-300.132 38.9238 135.766
-231.036 126.094 -92.4185
-233.813 123.575 -94.9324
-221.23 -145.717 61.2418
-219.382 -147.407 57.9196
-343.488 -37.2805 -123.05
-347.143 -34.895 -122.493
-27.6058 0.857159 175.733
-172.178 152.824 -63.1761
-168.487 153.64 -62.412
-25.3147 -1.95912 175.766
4.34494 9.5984 175.731
3.63183 13.0227 175.513
-354.635 84.8216 91.5624
-32.7411 13.5172 -175.106
-34.294 16.9505 -174.77
64.7201 15.3135 173.864
61.7887 18.2371 173.712
-354.077 87.4035 89.3725
-384.94 95.9399 60.2492
-502.481 7.34288 3.155
-318.292 -29.4444 133.063
-319.527 -32.0896 132.085
-138.291 -163.23 -44.6153
-501.85 11.8505 1.0111
-386.847 78.7276 80.3503
-383.296 79.178 81.9748
-380.505 81.4615 81.3267
-423.108 -25.4873 -91.6996
-204.333 160.514 -9.98302
-391.393 -110.309 7.2704
-419.282 -27.0186 -93.397
-346.565 106.745 69.8329
-341.94 5.8677 128.944
-463.278 29.3613 61.9443
-330.604 -118.292 -60.0119
-328.243 -120.313 -57.53
-146.26 79.9489 -148.206
-144.845 82.4766 -146.986
-416.427 -24.8842 -95.5298
-486.982 18.228 -40.1148
-203.118 75.625 142.147
-201.007 78.5625 140.916
-210.039 -157.549 27.4441
-206.414 -157.856 29.0022
-487.938 21.0373 -37.2121
-464.887 31.4482 59.3916
-453.143 -75.2565 13.1454
-455.359 -72.1577 19.5736
-455.71 -72.9467 15.1481
-379.722 66.1321 94.6012
-384.635 68.1653 90.6455
146.607 -47.1925 161.609
-380.633 69.04 92.0412
-477.922 -53.9991 9.78882
-478.505 -53.9534 5.69575
-475.204 -56.6452 10.9625
273.862 138.824 50.214
-318.087 -136.335 -1.22081
482.1 29.5889 40.5606
-321.87 -135.248 -0.24262
344.078 128.377 0.968166
270.089 137.34 56.4161
270.459 138.827 52.4173
-390.331 81.5371 -75.3284
-471.277 32.3732 52.3066
70.9176 19.8408 -173.109
66.4712 20.021 -173.304
-471.969 35.0805 49.7327
-2.18518 11.5076 175.622
-219.891 61.6632 145.787
-219.51 57.8081 147.428
-383.846 -87.3239 72.8831
-5.93986 12.0556 175.574
-381.115 -89.6018 71.8653
-445.517 -51.6244 -63.3268
-262.723 24.348 -148.097
-259.472 24.744 -148.731
-446.693 -53.8204 -60.4171
-442.227 -53.0416 -64.958
-392.604 74.2928 81.1503
-391.985 37.4473 -103.74
-389.367 35.9721 -105.455
-179.518 -142.403 -82.1696
-182.499 -143.329 -79.7195
-46.9183 6.24067 -175.122
-430.584 89.7523 -14.888
-426.726 91.9042 -15.3513
-389.323 75.6128 81.8637
-387.308 74.2528 84.2438
484.615 -18.1623 43.5095
484.23 -21.7826 42.3573
-440.088 85.0004 -6.23978
-442.453 83.4268 -6.95592
-266.633 -11.0509 148.828
8.36084 -175.747 8.97626
-268.556 -7.63134 148.62
-371.389 -52.3668 -106.522
-375.662 -51.9306 -104.889
-378.852 47.202 105.715
-377.066 50.7729 104.838
-420.613 93.1494 25.2867
-426.904 90.0027 23.7268
-403.235 104.809 9.1705
71.6095 -99.5775 -142.942
47.8353 -12.731 -174.739
44.4793 -11.5726 -174.928
-400.63 105.744 11.9814
-296.402 109.024 91.29
-423.44 92.1592 23.0387
-276.734 -95.6414 -111.592
-274.089 -98.4541 -109.933
-174.123 14.2542 164.502
-174.421 10.2687 164.76
-385.774 -40.5842 -105.397
-379.132 -39.7238 -108.627
-381.625 -41.9902 -106.688
459.824 -47.3127 53.3953
-351.173 103.489 -71.8861
454.167 -50.5495 56.2784
81.2272 144.692 96.0861
78.4719 145.855 94.596
[...]
POINT_DATA 41904
VECTORS F double
2.86275e-08 1.60666e-07 -3.77398e-09
3.60736e-08 1.58154e-07 -3.03801e-09
1.22044e-07 1.56715e-07 3.2667e-09
2.77485e-08 1.42911e-07 -5.06303e-09
-1.28858e-08 1.39843e-07 -1.37232e-08
-1.18025e-08 1.4144e-07 -1.20523e-08
-1.57165e-08 1.15535e-07 3.80927e-09
-7.398e-09 1.13697e-07 2.90666e-09
-7.21199e-08 1.28344e-07 -2.72649e-08
-8.01318e-08 1.27773e-07 -2.77871e-08
-1.76517e-07 9.03643e-08 -5.55388e-09
1.73891e-07 1.02081e-07 -1.04201e-08
-1.77975e-07 9.02939e-08 -4.07289e-09
-1.02487e-07 1.39847e-07 7.62966e-09
-1.05048e-07 1.40054e-07 7.76311e-09
-1.4173e-07 1.12081e-07 8.49874e-09
-1.40833e-07 1.12461e-07 8.93722e-09
2.15207e-07 8.09277e-08 -1.72472e-08
1.6561e-07 1.18638e-07 -5.70381e-09
1.70789e-07 1.16163e-07 -3.77227e-09
-1.26181e-07 1.00377e-07 1.8368e-08
-1.25887e-07 1.0136e-07 1.85548e-08
-1.60571e-07 9.53905e-08 -3.25247e-08
-1.60606e-07 9.6519e-08 -3.32184e-08
-1.09484e-07 1.47426e-07 -1.01643e-08
-1.06522e-07 1.47712e-07 -8.07302e-09
1.66874e-07 1.29243e-07 9.8487e-09
1.67604e-07 1.29256e-07 9.71663e-09
-1.13708e-07 -4.26645e-08 1.49879e-08
-1.12781e-07 -4.37856e-08 1.56244e-08
-2.01538e-07 6.7144e-08 -3.60273e-08
1.53125e-07 1.40734e-07 1.75193e-09
-1.3107e-07 1.27133e-07 -1.93691e-08
-9.77259e-08 1.53052e-07 -1.07561e-08
-9.63666e-08 1.5299e-07 -9.57377e-09
-1.12384e-07 1.19447e-07 -3.22394e-08
-1.16373e-07 1.15805e-07 -3.20392e-08
2.54382e-07 8.03137e-08 8.2506e-09
2.20826e-07 9.40764e-08 -5.62844e-12
2.24657e-07 9.34816e-08 1.72596e-09
-7.26942e-09 -6.82488e-08 -3.85118e-09
-1.14102e-08 -6.87264e-08 -3.35713e-09
-9.87805e-08 1.30457e-07 1.16511e-08
-1.01349e-07 1.27139e-07 1.27029e-08
8.26334e-08 1.29023e-07 1.29329e-08
8.27363e-08 1.31495e-07 1.51218e-08
1.89022e-07 9.11153e-08 -1.20877e-08
1.89704e-07 9.07062e-08 -1.34693e-08
1.56742e-08 1.45449e-07 1.84188e-09
2.52267e-08 1.47332e-07 1.479e-09
-6.9237e-08 2.07094e-09 6.33122e-10
-6.13106e-08 1.36922e-07 -2.25929e-08
-5.50609e-08 -3.88792e-09 -8.72357e-10
1.56641e-07 1.38059e-07 3.59899e-09
-5.62078e-08 1.40255e-07 -2.20019e-08
9.23206e-08 1.60097e-07 -4.64603e-09
1.00399e-07 1.56072e-07 -4.02083e-09
1.90533e-07 1.15495e-07 1.02914e-08
1.88679e-07 1.17516e-07 9.92487e-09
4.80604e-08 -6.15405e-08 -2.06668e-08
4.8602e-08 -6.03997e-08 -2.11773e-08
1.28736e-07 1.52219e-07 3.59369e-09
1.34113e-07 1.51059e-07 2.89766e-09
5.19026e-08 1.55694e-07 -1.9213e-09
4.88917e-08 1.57246e-07 -5.84842e-10
9.20185e-08 1.20016e-07 -6.86951e-09
9.30415e-08 1.21374e-07 -8.71153e-09
1.18598e-07 1.31915e-07 1.23235e-08
-7.17015e-08 2.48317e-08 -2.21481e-11
1.19776e-07 1.328e-07 1.38334e-08
9.44116e-08 1.29588e-07 1.80488e-08
8.90712e-08 1.27687e-07 1.60382e-08
-5.4013e-08 1.71534e-07 -6.57754e-09
-6.03678e-08 1.68806e-07 -8.13035e-09
1.63364e-07 1.29315e-07 -3.62422e-09
1.68265e-07 1.27188e-07 -1.44058e-09
1.54821e-07 1.36741e-07 -2.35253e-10
-1.97538e-07 4.63943e-08 1.79913e-08
-1.97805e-07 4.75778e-08 1.82066e-08
1.12329e-07 1.14911e-07 -1.04757e-08
5.81931e-08 1.74634e-07 -2.32155e-09
6.73418e-08 1.71336e-07 -3.14934e-09
1.33761e-07 1.32599e-07 -5.38395e-09
1.28435e-07 1.35769e-07 -6.35531e-09
-3.59244e-08 1.75874e-07 -2.26842e-09
-3.97242e-08 1.75895e-07 -2.9304e-09
1.66174e-07 1.2543e-07 1.2778e-08
1.64588e-07 1.26056e-07 1.13323e-08
-1.4472e-08 1.29404e-07 9.04372e-09
-5.45816e-08 -1.84945e-08 -1.54293e-09
-1.05367e-08 1.27942e-07 7.5779e-09
1.23262e-07 1.4745e-07 -5.38776e-09
-4.27188e-08 3.82183e-08 2.7636e-09
1.21208e-07 1.48493e-07 -4.59818e-09
-2.04511e-07 6.32378e-08 2.61498e-09
-2.04836e-07 6.19043e-08 1.80644e-09
1.11113e-07 1.13046e-07 -8.88075e-09
2.45574e-07 7.47903e-08 -3.69997e-09
-6.85408e-08 1.3592e-07 -2.32837e-08
-6.24604e-08 1.39927e-07 -2.29327e-08
-4.85398e-08 1.71058e-07 -9.37682e-09
-5.89383e-08 1.68704e-07 -8.68438e-09
-7.12617e-08 2.69478e-08 -1.90124e-10
-4.30677e-08 2.53133e-08 -2.62028e-09
-2.1897e-07 3.80546e-08 1.4107e-08
-2.2026e-07 3.61341e-08 1.25036e-08
2.79948e-07 6.64263e-08 5.53189e-09
-3.61784e-08 4.62395e-08 4.09708e-09
2.80106e-07 6.61639e-08 6.12065e-09
2.97999e-07 5.44425e-08 -3.67247e-09
-8.47647e-08 1.24476e-07 -3.03581e-08
-7.55575e-08 1.42777e-07 9.69864e-09
-7.84647e-08 1.4315e-07 1.04718e-08
-1.69289e-07 -2.72108e-08 -8.77752e-09
1.42679e-07 1.0453e-07 -1.21924e-08
1.45323e-07 1.0194e-07 -1.25404e-08
2.73658e-07 7.05536e-08 1.16885e-08
2.7614e-07 6.99084e-08 1.03043e-08
1.20328e-07 1.26962e-07 3.94651e-08
1.27553e-07 1.23824e-07 3.97047e-08
-2.20509e-08 1.24691e-07 -5.12132e-10
-2.79994e-08 1.19716e-07 -2.17015e-09
-3.26596e-08 1.52912e-07 -1.7263e-08
-3.16683e-08 1.54079e-07 -1.56411e-08
6.48023e-08 1.68942e-07 -3.38703e-09
-2.2983e-07 3.55646e-08 -2.27891e-08
-5.02332e-08 3.69607e-08 1.63815e-09
-2.28482e-07 3.7053e-08 -2.42421e-08
2.98904e-07 5.40169e-08 -5.63104e-09
1.15411e-07 1.03891e-07 -2.3324e-08
1.13708e-07 1.0515e-07 -2.20158e-08
2.95205e-07 5.56385e-08 -5.86533e-09
-2.24005e-07 4.31565e-08 1.0548e-08
-1.00738e-07 -4.39445e-08 -1.74169e-09
-1.00428e-07 -4.37954e-08 -1.93371e-09
4.55783e-08 9.53802e-08 -2.61636e-08
4.55887e-08 9.71668e-08 -2.72353e-08
2.23919e-07 9.15237e-08 4.6289e-08
2.22964e-07 9.02085e-08 4.47908e-08
2.13641e-07 9.75004e-08 2.30875e-08
1.39604e-08 1.81264e-07 -4.42486e-09
-2.24366e-07 1.40057e-08 -1.03435e-08
-2.24814e-07 1.48957e-08 -1.08613e-08
2.24879e-08 1.80106e-07 -3.42812e-09
-8.62338e-08 1.53879e-07 3.25487e-09
-2.40287e-08 -6.16274e-08 5.37684e-09
-2.40844e-08 -6.21476e-08 6.36401e-09
-1.28745e-07 8.69022e-08 2.27481e-08
-1.2767e-07 8.73655e-08 2.15581e-08
-7.74888e-08 1.57552e-07 4.76133e-09
6.21526e-08 1.69899e-07 -2.7549e-09
2.8253e-07 6.73995e-08 2.32265e-08
2.78113e-07 6.87027e-08 2.52516e-08
-7.43715e-08 -5.7773e-08 1.32002e-08
-7.50908e-08 -5.69527e-08 1.35922e-08
-6.50446e-08 -6.01721e-08 1.24987e-08
-6.77907e-08 -5.83048e-08 1.21032e-08
-2.24254e-07 4.36096e-08 9.60741e-09
-1.16155e-07 -1.49919e-08 2.06918e-09
2.95628e-07 6.03584e-08 1.97391e-08
2.93949e-07 6.18854e-08 2.10154e-08
2.58384e-08 1.364e-07 -3.05894e-09
3.16112e-08 1.39263e-07 -9.38966e-10
-2.08e-07 5.09156e-08 1.73073e-08
-2.09627e-07 4.87357e-08 1.5779e-08
-2.1528e-07 1.11167e-08 2.40719e-09
-2.13551e-07 1.2203e-08 3.33754e-09
2.76903e-07 7.27591e-08 5.77043e-08
-4.59897e-08 -8.83001e-09 -1.34223e-09
2.7778e-07 7.33932e-08 5.92417e-08
-8.3272e-08 1.22744e-07 1.52487e-08
-1.18669e-07 -1.67597e-08 2.78355e-09
-1.30153e-07 1.04245e-07 -3.56676e-08
-1.33339e-07 1.04089e-07 -3.75886e-08
-2.24406e-07 4.4018e-08 1.04578e-08
7.4084e-08 1.43187e-07 -3.908e-09
-4.57198e-08 3.08564e-08 1.81379e-09
2.31014e-07 8.01169e-08 -8.34437e-09
-4.62671e-08 3.35967e-08 1.98876e-09
1.59679e-07 1.13557e-07 3.60276e-08
-8.07376e-08 1.28493e-07 -2.77841e-08
-8.0835e-08 1.26858e-07 -2.70536e-08
-1.34731e-07 1.18602e-07 -2.50711e-08
5.67589e-08 -5.15257e-08 2.43352e-08
-1.44664e-07 -4.33855e-08 -1.79034e-08
-1.43807e-07 -4.4572e-08 -1.81657e-08
3.90209e-08 1.17322e-07 -8.66058e-09
3.05147e-08 1.15651e-07 -7.10227e-09
-1.37595e-07 1.14825e-07 -2.41223e-08
1.62203e-07 1.1164e-07 2.29781e-08
1.6095e-07 1.12623e-07 2.1184e-08
-1.47559e-07 1.11165e-07 6.92188e-09
8.16572e-08 1.34869e-07 7.21623e-09
7.36449e-08 1.33872e-07 5.90235e-09
-1.46108e-07 9.80899e-08 1.43134e-08
-1.40888e-07 1.01071e-07 1.65056e-08
7.90674e-08 -3.8234e-08 1.16335e-08
-1.48677e-07 1.08203e-07 7.23551e-09
8.1144e-08 -3.78423e-08 1.03438e-08
2.04431e-07 1.06435e-07 1.39605e-08
2.0877e-07 1.05294e-07 1.24292e-08
3.30846e-07 3.89363e-08 -4.59446e-08
3.35503e-07 3.56947e-08 -4.31224e-08
1.69618e-07 9.8144e-08 -3.64048e-08
1.694e-07 9.55104e-08 -3.35736e-08
-2.09904e-07 5.9236e-08 2.25803e-09
-2.12042e-07 5.83293e-08 -5.49476e-11
-3.09332e-08 1.35426e-07 -1.6408e-08
-3.13066e-08 1.34416e-07 -1.78074e-08
3.19491e-07 4.12462e-08 -2.53089e-08
3.18944e-07 4.07057e-08 -2.16284e-08
6.10029e-08 -5.12801e-08 -3.26303e-09
6.16863e-08 -5.01563e-08 -3.84573e-09
-1.80943e-07 -2.69823e-08 -1.4513e-08
-1.78296e-07 -2.82875e-08 -1.58848e-08
4.94228e-09 1.43732e-07 4.20372e-09
-3.03793e-09 1.41252e-07 4.85948e-09
-9.30855e-08 1.31215e-07 -2.5432e-08
-9.40333e-08 1.29435e-07 -2.74313e-08
-1.42232e-08 1.21312e-07 6.53218e-09
-2.16743e-08 1.18494e-07 7.18128e-09
-1.85244e-07 7.9447e-08 -3.60355e-08
-1.80096e-07 8.1405e-08 -3.72756e-08
2.90999e-08 -5.83244e-08 1.97682e-08
2.92004e-08 -6.01318e-08 2.0361e-08
-1.83558e-07 7.89101e-08 -4.11116e-08
-1.87418e-07 7.51772e-08 -3.89629e-08
-1.98582e-07 -1.75145e-08 -8.12388e-09
-7.01544e-08 2.46077e-08 -9.34406e-10
-6.99272e-08 -9.57098e-09 1.16412e-09
-2.00365e-07 -1.7674e-08 -9.24873e-09
7.31029e-08 1.3281e-07 1.66475e-08
7.36528e-08 1.34652e-07 1.71276e-08
1.75268e-07 9.48502e-08 -3.74999e-08
1.76995e-07 9.73093e-08 -3.83028e-08
-1.93914e-07 7.29144e-08 -1.71271e-09
-7.78823e-08 1.25126e-07 -2.94952e-08
1.09699e-07 1.27447e-07 1.38177e-08
1.11559e-07 1.26149e-07 1.57952e-08
-4.32186e-08 4.39049e-08 3.0549e-09
-4.41596e-08 3.96843e-08 2.46772e-09
-1.03831e-07 1.0071e-07 2.15557e-08
-9.66159e-08 1.00995e-07 2.05747e-08
-1.15215e-07 1.10294e-07 -3.26727e-08
-1.14872e-07 1.10046e-07 -3.34662e-08
-1.58984e-07 8.14257e-08 2.43523e-08
1.26348e-07 1.24272e-07 3.20503e-08
-1.61123e-07 7.85192e-08 2.30267e-08
-7.00767e-08 1.26807e-07 -2.71501e-08
-7.09077e-08 1.25829e-07 -2.85408e-08
-2.07574e-07 4.48429e-08 1.66331e-08
-2.06911e-07 4.65518e-08 1.74831e-08
-1.00118e-07 1.17636e-07 -3.03071e-08
-1.03094e-07 1.17548e-07 -3.23102e-08
-2.38549e-07 2.15357e-08 -1.41971e-08
-2.38878e-07 2.20449e-08 -1.42072e-08
2.67627e-07 6.93163e-08 2.75697e-09
2.6922e-07 6.89902e-08 1.04923e-09
-9.30356e-08 1.15337e-07 1.72915e-08
-9.29186e-08 1.15528e-07 1.57021e-08
-1.26407e-07 1.27578e-07 -1.94295e-08
-1.21406e-07 1.31084e-07 -2.10349e-08
-1.513e-07 8.45624e-08 2.44067e-08
-1.53456e-07 8.17237e-08 2.3712e-08
-4.67545e-08 1.20484e-08 -8.36095e-10
7.93559e-08 1.10921e-07 -1.29554e-08
7.4246e-08 1.1343e-07 -1.24253e-08
2.45679e-07 8.18991e-08 3.65486e-08
2.38334e-07 8.56696e-08 3.96502e-08
-2.21166e-07 4.59812e-08 1.15916e-08
-2.24428e-07 4.47523e-08 9.82267e-09
-4.67688e-08 1.30576e-07 -2.35771e-08
-4.62629e-08 1.3198e-07 -2.15461e-08
-6.14777e-08 3.56991e-08 -1.35649e-09
3.06992e-07 5.60815e-08 3.32289e-08
3.07483e-07 5.54947e-08 3.49849e-08
-6.57502e-08 3.17991e-08 -8.04919e-10
-5.36565e-08 1.21907e-08 -5.0343e-10
-4.83463e-08 1.35785e-08 -8.85008e-10
1.63291e-07 9.80344e-08 -1.33857e-08
-3.59125e-08 5.01698e-08 4.69496e-09
-2.91946e-08 5.34991e-08 5.89008e-09
-4.32959e-08 -3.51127e-08 5.06585e-09
-4.08932e-08 -3.21981e-08 5.16112e-09
1.70561e-07 9.77467e-08 -1.28634e-08
1.91649e-07 9.95678e-08 -8.63776e-09
2.15748e-08 1.81955e-07 -2.7793e-09
-4.54346e-08 1.14425e-07 1.20143e-08
-4.97501e-08 1.15354e-07 1.32902e-08
-2.38311e-07 2.96177e-08 -1.79232e-08
3.48879e-08 1.81062e-07 -2.02595e-09
1.56651e-07 1.04131e-07 -9.69119e-09
1.57794e-07 1.05076e-07 -1.11605e-08
1.60477e-07 1.02993e-07 -1.12394e-08
-3.76667e-08 1.39621e-07 -1.75287e-08
3.16123e-07 5.01085e-08 1.34993e-08
-1.86407e-07 8.05797e-08 -5.99898e-09
-3.78936e-08 1.39611e-07 -1.95608e-08
2.06729e-07 8.93173e-08 -1.09211e-08
1.54083e-08 1.18863e-07 -4.06342e-10
7.18458e-08 1.43899e-07 -2.42167e-09
-1.83352e-07 8.03269e-08 -3.46718e-08
-1.86506e-07 7.78815e-08 -3.25929e-08
1.39225e-07 1.1911e-07 4.74317e-08
1.45444e-07 1.16342e-07 4.77339e-08
-3.56189e-08 1.40083e-07 -1.74804e-08
5.25147e-08 1.69183e-07 -1.17549e-09
1.35132e-07 1.07871e-07 -3.37488e-08
1.42013e-07 1.04126e-07 -3.32508e-08
-2.36033e-07 3.84171e-08 -6.21253e-10
-2.35967e-07 3.78372e-08 3.32207e-10
5.985e-08 1.70746e-07 4.47687e-10
7.61204e-08 1.45836e-07 -4.27272e-09
-1.52403e-07 1.1203e-07 -1.83477e-09
-1.47976e-07 1.14526e-07 7.28206e-10
-1.49605e-07 1.1446e-07 1.74258e-10
1.32849e-07 1.08148e-07 -1.03166e-08
1.37838e-07 1.0807e-07 -9.66072e-09
-9.33407e-08 -6.26074e-08 -7.91548e-09
1.39039e-07 1.09557e-07 -1.17823e-08
-1.25231e-07 1.35377e-07 -1.76816e-09
-1.25066e-07 1.3554e-07 -2.45335e-09
-1.28372e-07 1.31735e-07 -5.86757e-10
1.14934e-07 -3.59879e-08 2.27504e-08
-2.1113e-07 6.04161e-08 -1.20031e-08
2.44418e-08 -6.37959e-08 1.09715e-08
-2.1105e-07 6.15116e-08 -1.06741e-08
9.90174e-08 -3.25089e-08 2.3003e-09
1.13621e-07 -3.7832e-08 2.55016e-08
1.16507e-07 -3.74613e-08 2.56178e-08
1.68946e-07 1.15292e-07 1.76149e-08
8.00478e-08 1.48438e-07 -3.57034e-09
-2.48903e-08 -3.935e-08 -5.75848e-09
-2.51415e-08 -3.73592e-08 -5.49657e-09
8.70628e-08 1.49854e-07 -4.54694e-09
-5.01278e-08 1.8477e-08 -1.28707e-09
1.11139e-07 1.09194e-07 -2.56625e-08
1.01829e-07 1.08332e-07 -2.39159e-08
-1.48213e-07 9.46185e-08 1.77996e-08
-5.02316e-08 2.0797e-08 -1.63606e-09
-1.50253e-07 9.18476e-08 1.69606e-08
-9.60567e-08 1.32412e-07 -2.52071e-08
5.22338e-08 1.33737e-07 1.06425e-08
5.24064e-08 1.37436e-07 1.16714e-08
-1.01509e-07 1.32775e-07 -2.63938e-08
-9.6596e-08 1.31496e-07 -2.68608e-08
1.50228e-07 1.07354e-07 -9.29979e-09
8.39663e-08 1.33441e-07 9.32523e-09
8.31912e-08 1.32866e-07 7.71614e-09
-2.16098e-07 5.15454e-08 -3.15289e-08
-2.16142e-07 5.10183e-08 -3.11473e-08
-4.18056e-08 5.94009e-08 3.48811e-09
1.94207e-07 1.15263e-07 7.19697e-09
1.96238e-07 1.12888e-07 7.98909e-09
1.5122e-07 1.0721e-07 -1.09761e-08
1.49835e-07 1.0661e-07 -9.62901e-09
-2.45715e-08 -6.82428e-08 5.02049e-09
-2.88135e-08 -6.81523e-08 5.28074e-09
1.87746e-07 1.19358e-07 4.76591e-09
1.85698e-07 1.21041e-07 5.58561e-09
-1.92251e-08 1.13687e-07 4.2248e-09
-2.29536e-07 -1.55526e-09 -4.27513e-09
-1.47752e-08 1.1653e-07 2.71486e-09
-7.86335e-08 1.2761e-07 -2.9169e-08
-7.89294e-08 1.25561e-07 -2.75559e-08
9.60484e-08 1.15731e-07 -9.53248e-09
1.04719e-07 1.12428e-07 -8.3365e-09
1.96627e-07 1.09022e-07 -1.18075e-09
1.92689e-07 1.12103e-07 -7.77883e-10
2.144e-07 1.00769e-07 2.51806e-09
-1.49334e-07 -2.87481e-08 1.08674e-08
-6.74305e-08 -2.39846e-08 -5.12528e-10
-6.72138e-08 -2.23144e-08 -6.16162e-10
2.16162e-07 1.00073e-07 1.70323e-09
2.06049e-07 8.31409e-08 -1.73851e-08
1.94894e-07 1.09645e-07 -4.86819e-11
-1.47396e-07 1.00549e-07 -4.14255e-08
-1.51352e-07 9.66209e-08 -4.03322e-08
7.26336e-09 1.12093e-07 -8.77171e-09
-3.74739e-09 1.1232e-07 -7.486e-09
-6.06449e-08 1.31073e-07 -2.32947e-08
-5.80995e-08 1.32122e-07 -2.34893e-08
-6.0392e-08 1.31791e-07 -2.54223e-08
-5.25828e-08 -6.04396e-08 1.88548e-09
2.05476e-07 9.96072e-08 2.05039e-08
-5.51841e-08 -5.92932e-08 1.26551e-09
1.90899e-07 -2.46909e-08 1.74234e-08
1.94388e-07 -2.14116e-08 1.32715e-08
3.44538e-07 3.3765e-08 5.12967e-10
3.42377e-07 3.50059e-08 -1.34196e-09
-5.45185e-08 -5.9042e-08 1.69133e-09
3.11448e-07 5.2596e-08 1.71726e-08
-1.05546e-07 1.21475e-07 -3.06093e-08
3.10158e-07 5.36175e-08 1.74123e-08
-1.77209e-07 6.24213e-08 2.20833e-08
-1.8114e-07 6.03101e-08 2.12028e-08
-1.77387e-07 6.21631e-08 2.13985e-08
-2.44847e-07 1.99038e-08 -4.16718e-09
-2.4511e-07 1.99743e-08 -4.5566e-09
-2.44639e-07 2.06137e-08 -3.20826e-09
2.8477e-08 1.44388e-07 -4.66018e-09
3.25727e-08 1.42669e-07 -2.63237e-09
2.19164e-07 9.94178e-08 1.05899e-08
2.20312e-07 9.91035e-08 1.09498e-08
2.92297e-08 1.15173e-07 -4.02625e-09
3.17476e-08 1.17535e-07 -5.75645e-09
-2.59211e-08 1.35027e-07 -1.01676e-08
-1.63638e-08 1.35199e-07 -8.5624e-09
4.27371e-08 1.42684e-07 -1.77264e-09
-7.51894e-08 -5.35086e-08 -2.85304e-09
-1.2872e-07 1.14082e-07 -3.25436e-08
-1.79679e-08 -2.29302e-09 -7.10178e-10
-1.8299e-08 -5.07566e-09 -1.21324e-09
-7.35345e-08 -5.33536e-08 -2.04217e-09
-7.69117e-08 -5.2098e-08 -2.57201e-09
-1.23775e-07 1.25881e-07 -2.31945e-08
-1.12103e-07 1.31964e-07 -2.42766e-08
-1.16595e-07 1.26951e-07 -2.42023e-08
-2.1849e-07 5.49576e-08 -3.93261e-09
-1.35999e-07 1.05395e-07 -3.77254e-08
-1.74165e-07 8.42977e-08 -4.16607e-08
-1.73908e-07 8.56113e-08 -4.14e-08
-2.90966e-08 1.31888e-07 -1.76161e-08
-2.49942e-08 1.3522e-07 -1.62899e-08
-1.67394e-07 9.8793e-08 -1.68671e-08
-1.65358e-07 1.01114e-07 -1.83941e-08
-1.35869e-07 1.06702e-07 -3.89052e-08
-1.40602e-07 1.03497e-07 -3.76859e-08
-5.60067e-08 1.14636e-07 1.42531e-08
-5.59785e-08 1.11069e-07 1.37779e-08
2.03493e-07 8.57669e-08 -2.8759e-08
1.98252e-07 8.51881e-08 -2.70637e-08
1.15144e-08 1.30587e-07 3.08252e-09
1.60247e-08 1.28549e-07 1.66278e-09
2.33809e-07 8.69916e-08 1.35149e-09
2.33236e-07 8.82041e-08 2.18563e-09
-1.30485e-07 8.68911e-08 2.24134e-08
-1.30133e-07 8.74367e-08 2.32461e-08
2.34376e-07 8.7269e-08 8.16783e-10
-4.83621e-08 1.37182e-07 1.06283e-08
-5.82725e-08 1.38507e-07 1.10856e-08
-1.10248e-07 1.05392e-07 1.89354e-08
-1.05318e-07 1.04889e-07 1.79336e-08
-5.94966e-08 1.37765e-07 1.14611e-08
1.23608e-07 1.26443e-07 1.54033e-08
1.22801e-07 1.25279e-07 1.49096e-08
1.29916e-07 1.2586e-07 1.60194e-08
-5.19755e-09 1.23586e-07 4.06847e-09
-8.80817e-09 1.25349e-07 5.5647e-09
-1.82327e-08 1.35865e-07 -1.48932e-08
-2.87792e-08 1.34266e-07 -1.79637e-08
3.49906e-07 3.03816e-08 -4.52803e-08
3.5863e-07 2.74642e-08 -4.1902e-08
-2.48338e-08 1.32982e-07 -1.62653e-08
-7.88274e-08 1.07067e-07 1.80667e-08
2.68643e-07 7.35271e-08 1.46346e-08
2.67017e-07 7.49558e-08 1.45457e-08
-7.17885e-08 1.08185e-07 1.66839e-08
-7.92661e-08 1.05668e-07 1.6983e-08
-4.72781e-08 1.17984e-07 1.11881e-08
-4.70124e-08 1.18686e-07 1.25516e-08
-5.51792e-08 1.1512e-07 1.25861e-08
-2.74049e-09 1.42024e-07 -1.0646e-08
2.01538e-07 1.0281e-07 1.7641e-08
2.02925e-07 1.01103e-07 1.83717e-08
-1.50163e-07 9.26482e-08 -3.63541e-08
-1.50726e-07 9.16826e-08 -3.72331e-08
-2.43645e-09 1.43106e-07 -1.17247e-08
-2.43214e-07 3.04708e-08 -1.13391e-08
2.82001e-07 5.71148e-08 -2.94081e-08
-7.70268e-08 1.88247e-08 -1.43648e-09
-7.80179e-08 2.13037e-08 -1.57585e-09
2.82537e-07 5.76503e-08 -3.22498e-08
-2.4248e-07 3.06557e-08 -1.00979e-08
-2.43331e-07 3.02998e-08 -9.29234e-09
8.38193e-08 -6.74312e-08 -3.33951e-08
7.42413e-08 1.32322e-07 9.22356e-09
7.46421e-08 1.33659e-07 1.16124e-08
-5.3203e-08 1.31072e-07 -2.38539e-08
-5.38363e-08 1.29298e-07 -2.258e-08
1.34323e-07 1.26013e-07 1.55463e-08
1.3425e-07 1.26243e-07 1.47347e-08
-6.88995e-08 -1.98373e-08 -5.17138e-10
-7.34255e-08 -2.03332e-08 -2.12811e-10
-2.35217e-07 3.78465e-08 -2.15803e-08
-2.33296e-07 3.86415e-08 -2.22087e-08
-1.65701e-07 1.0144e-07 -3.70181e-09
-1.61724e-07 1.04772e-07 -3.13437e-09
-1.0155e-07 1.25198e-07 -3.07015e-08
-1.01601e-07 1.24597e-07 -2.92972e-08
-5.29871e-08 -4.21017e-08 4.38244e-09
-5.34513e-08 -4.10896e-08 4.14357e-09
-1.64125e-07 1.03073e-07 -5.58467e-09
-5.52073e-08 1.5936e-07 -1.60204e-08
2.1355e-07 9.9884e-08 1.5295e-09
2.08226e-07 1.01986e-07 -4.52309e-11
2.57428e-07 6.61143e-08 -1.99377e-08
2.58064e-07 6.67919e-08 -2.27245e-08
2.1161e-07 1.01829e-07 6.26785e-10
1.56088e-07 1.19135e-07 1.58479e-08
-1.88655e-07 7.95104e-08 -1.21736e-08
-1.89815e-07 7.82399e-08 -1.04264e-08
4.11744e-08 1.14626e-07 -1.41676e-08
-1.48821e-07 1.0973e-07 -2.67274e-08
2.6086e-07 6.46104e-08 -1.71574e-08
-8.33631e-08 -1.55488e-08 5.3032e-10
2.62856e-07 6.49091e-08 -1.85255e-08
3.35565e-08 1.17108e-07 -1.34401e-08
-8.49557e-08 1.58462e-07 -1.06276e-08
-4.62858e-08 -4.43992e-08 5.35746e-09
-4.40556e-08 -4.18665e-08 5.7129e-09
-1.11997e-07 1.35065e-07 -2.17744e-08
-1.16923e-07 1.31338e-07 -2.07128e-08
9.17666e-08 1.35614e-07 7.57289e-09
9.43117e-08 1.37115e-07 9.66012e-09
3.40033e-08 1.15189e-07 -1.13299e-08
-1.80745e-07 -2.44835e-08 1.35661e-08
3.43548e-07 3.48324e-08 2.84672e-09
3.44652e-07 3.3733e-08 3.1546e-09
6.16041e-08 1.27495e-07 -3.3681e-09
6.81779e-08 1.28073e-07 -4.54112e-09
-1.82145e-07 -2.31023e-08 1.21813e-08
-1.13576e-07 -4.05624e-08 1.08896e-08
6.59338e-08 -5.14923e-08 -1.85991e-08
6.22966e-08 -5.20453e-08 -1.88136e-08
-2.22565e-07 5.15666e-08 -2.76638e-08
-2.21897e-07 5.30227e-08 -2.8825e-08
6.5656e-08 1.36549e-07 3.27354e-09
6.70676e-08 1.37214e-07 5.4912e-09
-5.94361e-08 1.28381e-07 -2.09513e-08
-5.74782e-08 1.31806e-07 -1.99292e-08
-3.47116e-08 -6.18139e-08 3.54884e-09
-3.87369e-08 -6.03092e-08 3.65837e-09
8.75654e-08 1.58375e-07 5.80826e-09
8.24759e-08 1.57262e-07 3.68438e-09
-1.47989e-07 1.00319e-07 -4.18827e-08
-1.47891e-07 9.8357e-08 -4.08616e-08
7.11472e-08 1.60409e-07 4.09299e-09
1.90084e-07 1.06582e-07 2.26548e-08
2.75234e-07 6.54591e-08 2.01458e-09