# vtk DataFile Version 2.0
S, Created by Mohamad Ibrahim Cheikh
ASCII
DATASET UNSTRUCTURED_GRID
POINTS 41904 double
-471.716 -2.86322 -61.0329
-470.872 0.358514 -61.8917
-491.805 35.0091 -11.7405
-431.236 -4.11182 -90.5064
-415.448 -25.1072 -95.9919
-418.571 -23.3963 -94.7554
-278.795 -19.9309 145.13
-278.228 -16.3377 145.711
-377.359 -58.2711 -100.729
-376.964 -61.4119 -99.0301
-402.887 -105.05 8.237
-398.909 79.309 72.1385
-401.203 -105.547 11.3504
-468.546 -53.976 34.4209
-469.477 -54.9366 31.1972
-436.038 -79.4782 37.1701
-434.601 -78.999 40.1343
-306.857 104.878 91.9154
-446.352 67.4749 45.0705
-444.286 70.4062 43.0394
-374.42 -81.969 84.2231
-371.315 -81.3287 86.4961
-369.189 -105.497 -56.2057
-366.697 -105.247 -58.6205
-477.095 -54.7889 -10.3236
-479.013 -53.2896 -6.64012
-459.388 63.5098 -33.2425
-457.207 63.6034 -36.5782
321.652 -120.79 -60.985
325.282 -119.094 -61.9557
-237.35 -137.668 -71.599
-480.194 52.3278 -2.64319
-452.15 -71.5856 -28.6686
-481.006 -49.5227 -14.0427
-482.274 -48.7653 -11.0501
-386.71 -77.2764 -81.8261
-384.069 -80.0564 -80.6686
-355.289 124.277 -8.75991
-401.885 103.445 22.3896
-399.931 105.065 18.8458
364.291 7.14015 -121.151
364.734 3.60683 -121.144
-451.391 -56.2094 53.5806
-448.525 -58.5925 53.9719
-324.825 26.011 -131.839
-321.226 27.0114 -132.715
-358.509 90.0711 84.4237
-355.373 91.2722 84.7563
-461.443 -5.13491 69.861
-462.626 -1.53837 69.0705
21.5403 -1.02716 175.836
-428.209 -47.2747 -79.3218
30.2357 2.42616 -175.665
-477.805 54.8776 -3.71666
-430.135 -44.4961 -79.6524
-491.251 23.7109 29.4604
-489.725 27.6586 29.1282
-440.386 79.8935 -29.1362
-443.36 77.9059 -28.9948
333.433 74.0439 -109.005
330.603 76.1839 -108.584
-489.37 39.0124 -11.5762
-488.402 41.2871 -8.19686
-479.838 9.08476 52.0056
-482.072 7.3352 49.7008
-415.044 34.1001 93.3977
-411.119 34.9598 95.1879
-427.774 43.1078 -81.9397
-7.73644 -6.6629 175.853
-424.55 43.7647 -83.6271
-320.745 33.7531 -131.306
-319.123 31.0375 -132.455
-494.23 -31.2009 -9.85928
-492.41 -33.7907 -12.196
-466.86 61.5761 22.3536
-464.792 64.2452 19.9918
-477.255 54.7427 9.64116
-135.501 -126.558 112.744
-139.099 -126.096 112.725
-392.555 45.3242 100.276
-500.141 8.24039 16.8298
-499.039 12.0992 18.4277
-464.241 48.3512 47.4556
-466.035 45.216 48.3838
-497.828 -24.3146 6.52025
-497.542 -25.6791 3.03419
-445.257 65.489 -49.141
-448.589 64.2964 -46.9582
-419.887 -22.0758 94.3585
48.475 2.87192 -175.157
-418.247 -19.5311 95.8002
-482.344 39.0012 31.1573
-13.0298 7.91554 -175.763
-484.45 37.7909 28.5371
-310.76 -134.672 31.8784
-307.429 -135.809 30.9945
-396.849 44.9888 98.339
-332.752 121.699 51.0825
-432.296 -50.1228 -74.7255
-434.604 -46.9213 -75.1644
-493.008 -29.922 -17.974
-491.637 -33.5153 -16.1375
-10.2209 -6.06773 175.859
-0.984998 15.7858 175.29
-137.711 -144.612 87.9862
-134.651 -145.917 86.3965
-306.068 139.091 12.6813
-21.3341 10.0749 -175.553
-305.39 138.91 16.1821
-248.756 146.614 43.6391
-350.917 -66.4541 -107.161
-465.932 -43.6534 49.9162
-467.521 -44.9181 46.8825
201.577 -155.941 41.0331
-371.358 62.5296 100.906
-368.093 65.3825 100.562
-318.701 135.91 -8.32501
-316.4 136.71 -5.47626
-182.387 54.2295 -154.798
-181.538 57.1946 -153.85
-157.181 -15.1283 -166.5
-154.108 -18.0575 -166.56
-458.307 -30.6627 -65.7255
-461.644 -29.3021 -63.4475
-495.574 11.7511 27.7442
-124.544 -157.534 -65.2682
-14.2756 2.14957 -175.916
-126.858 -156.458 -67.28
-245.057 147.218 44.166
-253.273 53.4751 142.348
-256.116 50.9543 142.649
-251.116 145.433 45.8795
-192.838 -151.123 59.8765
382.273 -104.798 45.8496
383.75 -105.36 42.9607
-91.9176 42.3937 167.763
-88.4892 43.0759 167.815
-214.447 105.565 -119.171
-217.952 105.915 -118.077
-354.854 99.1524 -75.685
-500.423 -8.24841 -15.7652
-34.3031 -158.222 -76.1432
-38.0889 -158.411 -75.5266
-500.151 -5.25677 -17.9501
-482.765 -44.3078 21.884
447.935 -10.8185 79.3337
445.404 -9.07527 81.2729
-214.767 -83.9538 135.206
-212.758 -81.5081 137.078
-484.815 -40.7987 23.1246
-497.077 10.5581 24.7727
-275.535 138.529 -49.9087
-277.093 137.06 -52.8234
352.46 -73.7131 -101.652
349.221 -75.5893 -101.643
365.011 -64.615 -102.417
362.505 -67.7501 -101.476
-198.536 -151.357 56.931
46.6872 -54.0262 -166.704
-258.922 145.87 -38.6012
-262.779 144.645 -39.9957
-358.034 -6.25655 -123.461
-360.284 -2.8696 -122.783
-190.799 -137.385 87.4316
-187.707 -139.056 85.5912
-34.8101 -143.825 100.708
-36.4337 -142.001 103.195
-148.841 129.309 -107.437
36.5518 10.1506 -175.241
-144.84 129.091 -108.365
-422.29 -54.1913 78.7811
48.8008 -57.3107 -165.529
-216.568 -89.1765 -131.459
-218.397 -92.0383 -129.094
-196.514 -150.648 59.6079
-464.496 20.4554 64.3612
-6.05541 6.53798 -175.866
-338.865 112.447 65.3689
-9.84085 5.83719 -175.869
-245.988 70.1849 -136.535
-386.863 -61.0713 -94.4617
-390.292 -60.9458 -92.8011
-431.171 -79.3338 -43.833
345.494 93.2102 87.6003
200.095 -118.447 109.747
203.627 -117.014 110.487
-285.995 10.9887 144.365
-284.558 7.03827 144.958
-428.122 -81.7688 -43.0089
-356.734 71.3274 -101.528
-359.828 69.1377 -101.706
-434.752 -81.9563 33.446
-400.37 23.4662 -103.924
-399.385 19.9708 -105.112
-394.508 -89.8789 61.9932
-396.952 -87.1527 63.9448
382.064 110.205 30.9709
-431.55 -83.9456 33.5896
380.342 111.646 28.2912
-417.348 90.9331 -37.1801
-415.85 92.828 -34.4516
-77.2619 147.563 92.0345
-74.4911 149.342 89.4075
-215.353 80.7979 137.003
-219.16 80.4116 136.49
-294.095 -139.532 30.2906
-291.518 -140.68 27.94
-375.314 -35.2335 -111.754
-371.748 -36.7173 -112.731
-148.96 151.017 73.8468
-152.624 150.622 73.7363
453.312 71.5385 -26.4547
450.225 73.6711 -27.0473
148.519 -149.628 76.7254
150.953 -148.005 79.2502
-454.716 -10.5363 74.5015
-453.248 -13.8384 75.0543
-432.816 -60.8395 -65.8763
-429.025 -62.8322 -67.0317
-344.818 -21.9438 126.244
-343.144 -25.2981 126.175
-301.337 -125.877 -63.3556
-302.86 -123.64 -66.7774
365.489 62.2289 103.678
361.889 62.1161 105.279
-225.014 -125.363 -95.1911
-221.795 -127.62 -93.0942
122.887 -166.669 36.7215
-3.99365 -12.159 -175.574
36.6576 -1.13184 175.528
120.11 -166.2 39.8415
-270.829 23.2656 -146.474
-266.952 23.0847 -147.371
-203.953 84.4333 136.946
-200.825 83.2146 138.252
-352.562 -123.908 20.1188
-351.262 -63.4476 -108.832
-379.066 39.5438 -108.721
-375.856 42.1392 -109.109
-19.8132 6.37304 -175.748
-16.0635 5.55355 -175.823
-245.584 -70.1256 136.654
-245.621 -66.7145 138.344
-213.4 -79.3308 -138.229
-209.611 -79.9902 -138.558
-277.64 -106.32 101.166
-252.518 53.3727 -142.55
-274.953 -108.077 100.199
-296.068 -59.2642 -129.352
-298.819 -61.0395 -127.742
-152.108 -135.754 98.56
-155.079 -134.57 99.6112
-220.865 -70.7713 -141.404
-222.52 -73.6522 -139.604
-82.3503 -167.606 -45.3188
-85.724 -167.73 -44.08
-318.756 133.221 28.0807
-315.711 133.78 29.5961
-404.851 -61.7351 84.249
-408.277 -60.5739 83.0593
-451.998 -69.9352 -32.7451
-454.333 -67.303 -34.2688
-280.297 -101.383 105.255
-277.365 -103.509 104.131
13.9318 15.8048 175.221
-302.494 31.095 137.136
-304.01 27.9168 137.41
-250.485 116.951 -98.0653
-252.434 114.042 -100.841
-204.734 -149.027 60.2915
-202.676 -150.624 57.0887
-338.954 -48.0165 -120.849
-342.66 -45.762 -120.443
-18.8378 -0.868646 175.874
-198.863 146.308 -68.7627
-195.185 147.16 -68.2333
-16.2685 -3.39787 175.875
12.3861 10.1387 175.654
11.3515 13.4562 175.44
-366.244 75.9448 93.7349
-25.7636 10.3586 -175.463
-27.7615 13.5282 -175.21
71.3681 19.8618 173.084
68.324 22.6239 172.895
-366.322 78.5261 91.5448
-398.807 87.7089 61.7333
-502.686 -5.23277 3.36293
-313.485 -39.0448 131.985
-314.458 -41.7096 130.881
-120.537 -165.234 -43.5304
-502.984 -0.757378 1.17014
-397.846 69.9789 81.8563
-394.398 70.259 83.6399
-391.812 72.706 83.0344
-419.636 -36.0856 -90.0803
-232.469 155.656 -11.4406
-378.028 -115.83 7.96194
-415.798 -37.6471 -91.6075
-361.932 98.734 72.0406
-341.735 -4.43025 129.068
-467.507 18.9371 62.118
-317.052 -124.127 -57.1095
-314.453 -125.964 -54.8
-153.684 67.5387 -153.372
-152.803 70.2854 -152.241
-413.066 -35.6159 -93.9041
-489.555 6.09151 -39.9592
-210.756 63.7978 146.519
-209.197 67.0261 145.346
-192.678 -160.254 27.3735
-189.054 -160.523 28.853
-490.999 8.77497 -37.1951
-469.392 20.8877 59.7051
-442.211 -82.7739 13.534
-444.711 -79.8265 19.771
-444.96 -80.6192 15.3831
-388.82 56.8461 96.1007
-394.122 58.991 92.0796
155.482 -41.2436 162.22
-390.212 59.633 93.691
-468.743 -63.031 10.1302
-469.344 -63.0042 6.08135
-465.837 -65.4379 11.2255
265.512 141.611 47.8676
-302.738 -140.553 -0.160579
480.656 33.2122 39.8477
-306.525 -139.543 0.723867
337.242 130.58 0.807426
261.879 140.309 53.7861
261.961 141.761 49.7802
-402.196 71.778 -77.5846
-476.034 21.6981 52.5496
76.1897 24.6057 -172.22
71.7663 24.6141 -172.452
-477.208 24.2745 50.0601
5.69086 11.5055 175.612
-225.684 49.9697 149.142
-224.456 46.2534 150.561
-372.823 -93.9888 71.5866
1.94045 11.781 175.604
-369.947 -96.0655 70.6503
-438.191 -61.0544 -61.158
-264.494 11.5254 -149.259
-261.26 11.6644 -149.944
-439.008 -63.229 -58.1579
-434.865 -62.4396 -62.6476
-403.073 65.3596 82.5415
-397.213 26.1618 -104.76
-394.558 24.6761 -106.337
-162.921 -146.082 -79.9139
-165.916 -146.963 -77.5085
-39.4715 2.14405 -175.444
-444.259 81.02 -15.752
-440.563 83.3497 -16.2983
-399.855 66.6181 83.4469
-397.76 65.2585 85.7163
486.072 -14.3384 42.9442
485.928 -17.9477 41.771
-453.173 76.0713 -6.79092
-455.363 74.3734 -7.61128
-263.03 -21.3746 148.488
24.797 -175.531 9.47023
-265.366 -18.2518 148.396
-364.928 -62.3433 -103.851
-369.184 -61.7363 -102.361
-385.01 37.2941 106.944
-383.935 41.0839 106.024
-434.594 84.8395 25.5847
-440.527 81.506 23.9457
-418.783 97.0692 9.0431
84.1699 -96.6511 -144.108
56.2975 -9.42327 -174.64
52.9285 -8.39019 -174.822
-416.381 98.0115 11.9853
-311.936 100.434 94.7423
-437.247 83.8551 23.1838
-264.922 -103.443 -108.088
-261.974 -105.939 -106.539
-170.971 3.78604 165.478
-170.451 -0.1382 165.587
-380.566 -50.8619 -103.235
-374.055 -50.1604 -106.442
-376.435 -52.3327 -104.348
463.022 -43.9422 52.8892
-366.38 94.6036 -74.7782
457.547 -47.2492 55.7927
66.0508 147.493 93.2082
63.0602 148.383 92.0422
[...]
POINT_DATA 41904
VECTORS F double
5.35606e-09 1.93224e-07 -1.4134e-08
1.3995e-08 1.92485e-07 -1.19222e-08
9.3926e-08 1.68631e-07 2.11191e-08
1.59802e-08 2.21977e-07 -1.94071e-08
-2.29508e-08 2.24149e-07 -4.64668e-08
-2.28624e-08 2.23316e-07 -4.27754e-08
-1.01037e-07 2.779e-07 1.4402e-08
-9.30707e-08 2.78382e-07 9.45582e-09
-9.02984e-08 2.16185e-07 -8.36456e-08
-1.0018e-07 2.13013e-07 -8.54089e-08
-2.07745e-07 9.52524e-08 -2.92457e-08
2.23628e-07 1.77346e-07 -4.35743e-08
-2.12121e-07 9.59485e-08 -2.57372e-08
-1.21396e-07 1.29642e-07 9.8333e-10
-1.23043e-07 1.29177e-07 7.78655e-10
-1.64969e-07 1.10786e-07 -4.38196e-11
-1.66502e-07 1.12918e-07 1.52256e-09
3.46413e-07 2.71964e-07 -1.68729e-07
1.80976e-07 1.46112e-07 6.86362e-10
1.89811e-07 1.43893e-07 4.50149e-09
-1.72323e-07 1.3252e-07 3.51826e-08
-1.73661e-07 1.36507e-07 3.70807e-08
-1.93411e-07 1.28309e-07 -8.52951e-08
-1.95017e-07 1.32014e-07 -8.76618e-08
-1.24815e-07 1.39192e-07 -3.25195e-08
-1.21122e-07 1.36848e-07 -2.85187e-08
1.55045e-07 1.62054e-07 4.72813e-08
1.57196e-07 1.65785e-07 4.77114e-08
-9.3373e-08 -4.3112e-08 2.50954e-08
-9.20094e-08 -4.43388e-08 2.60867e-08
-2.94826e-07 9.6117e-08 -6.51537e-08
1.36298e-07 1.54467e-07 2.63971e-08
-1.43576e-07 1.33371e-07 -5.57955e-08
-1.13964e-07 1.44565e-07 -3.19038e-08
-1.12125e-07 1.42508e-07 -2.97797e-08
-1.32478e-07 1.78731e-07 -9.21406e-08
-1.37853e-07 1.7297e-07 -9.13029e-08
3.83494e-07 1.36071e-07 2.61621e-08
2.78609e-07 1.32717e-07 -9.12598e-10
2.88488e-07 1.33729e-07 3.99212e-09
-8.00575e-08 -9.98875e-08 -3.53594e-08
-8.29816e-08 -1.0076e-07 -3.35876e-08
-1.19924e-07 1.30329e-07 1.30323e-08
-1.21633e-07 1.27223e-07 1.43612e-08
6.62174e-08 3.41336e-07 4.73691e-08
6.53758e-08 3.51346e-07 5.2136e-08
2.71232e-07 2.13559e-07 -8.68292e-08
2.71394e-07 2.1696e-07 -9.43228e-08
2.4657e-09 1.59916e-07 1.37492e-08
1.20639e-08 1.64016e-07 1.35468e-08
-4.11589e-07 -6.47629e-08 5.79482e-09
-7.16663e-08 1.9113e-07 -6.65452e-08
-3.72878e-07 -8.84424e-08 -9.07922e-09
1.41113e-07 1.52477e-07 3.03132e-08
-6.68891e-08 1.95588e-07 -6.50383e-08
6.84362e-08 1.61593e-07 9.66333e-09
7.90432e-08 1.58631e-07 1.20796e-08
1.94012e-07 1.51429e-07 5.62068e-08
1.91375e-07 1.53675e-07 5.4634e-08
8.02226e-09 -8.77667e-08 -5.66134e-08
8.96931e-09 -8.57045e-08 -5.67879e-08
1.02553e-07 1.64595e-07 2.38995e-08
1.09692e-07 1.63597e-07 2.38153e-08
3.43254e-08 1.59773e-07 1.08658e-08
3.0836e-08 1.59887e-07 1.30229e-08
1.08933e-07 1.92044e-07 -1.08502e-08
1.1007e-07 2.01339e-07 -1.57428e-08
1.08451e-07 2.16609e-07 4.46385e-08
-4.22107e-07 2.81539e-09 -2.16685e-09
1.10082e-07 2.2256e-07 4.80515e-08
8.04865e-08 3.5222e-07 6.64695e-08
7.16076e-08 3.48342e-07 6.05028e-08
-7.85651e-08 1.58294e-07 -1.87784e-08
-8.35163e-08 1.57213e-07 -2.27591e-08
1.60815e-07 1.43569e-07 1.57257e-08
1.68185e-07 1.42769e-07 1.99275e-08
1.42747e-07 1.48155e-07 2.39118e-08
-3.17259e-07 8.83057e-08 5.24429e-08
-3.17625e-07 9.13603e-08 5.42116e-08
1.41738e-07 2.20296e-07 -3.16395e-08
2.4939e-08 1.7008e-07 7.47428e-09
3.58346e-08 1.67595e-07 8.78381e-09
1.34192e-07 1.50416e-07 7.46733e-09
1.26143e-07 1.53508e-07 5.29927e-09
-6.42539e-08 1.5886e-07 -8.20563e-09
-6.79037e-08 1.5992e-07 -9.75383e-09
1.5818e-07 1.74555e-07 5.71521e-08
1.55544e-07 1.71301e-07 5.26288e-08
-2.7312e-08 1.80644e-07 2.73835e-08
-3.54806e-07 -1.30525e-07 -1.4162e-08
-2.29796e-08 1.80464e-07 2.45093e-08
1.08069e-07 1.54775e-07 1.10912e-08
-3.78732e-07 2.07549e-08 4.37202e-09
1.04693e-07 1.5446e-07 1.30502e-08
-2.70795e-07 7.61604e-08 -1.4469e-09
-2.71196e-07 7.44798e-08 -2.9816e-09
1.39201e-07 2.09055e-07 -2.68642e-08
3.97964e-07 1.72371e-07 -9.3274e-08
-7.92253e-08 1.8392e-07 -6.72529e-08
-7.38179e-08 1.89048e-07 -6.57579e-08
-7.3464e-08 1.62542e-07 -2.38934e-08
-8.19444e-08 1.58459e-07 -2.3459e-08
-4.20569e-07 1.11348e-08 -2.60841e-09
-4.14036e-07 -1.54744e-08 1.10881e-09
-3.16447e-07 6.9133e-08 5.29872e-08
-3.17341e-07 6.64972e-08 5.17571e-08
5.22198e-07 1.44066e-07 -3.70869e-08
-3.79027e-07 4.30406e-08 8.1093e-09
5.28136e-07 1.4647e-07 -3.70462e-08
6.58443e-07 1.86737e-07 -1.6786e-07
-1.1473e-07 2.20471e-07 -9.07241e-08
-9.5908e-08 1.37827e-07 1.0932e-08
-9.79515e-08 1.36782e-07 1.14628e-08
-1.74772e-07 -3.55766e-08 -3.00881e-08
1.90088e-07 2.33557e-07 -5.90821e-08
1.92975e-07 2.30832e-07 -6.36005e-08
4.78282e-07 1.39336e-07 3.30539e-08
4.95578e-07 1.41221e-07 1.99164e-08
-2.64055e-08 4.49641e-07 1.61329e-07
-1.52829e-08 4.4535e-07 1.67769e-07
-2.38753e-07 3.13634e-07 -9.02527e-10
-2.51315e-07 2.99496e-07 -4.00141e-09
-4.82073e-08 1.88031e-07 -4.65671e-08
-4.78461e-08 1.85109e-07 -4.28686e-08
3.61019e-08 1.66051e-07 8.62442e-09
-3.6563e-07 4.0795e-08 -1.30463e-08
-3.85694e-07 2.38601e-08 4.12344e-09
-3.62658e-07 4.31524e-08 -1.66319e-08
6.61194e-07 1.89805e-07 -1.83516e-07
6.37489e-08 3.85824e-07 -1.31054e-07
6.90665e-08 3.79883e-07 -1.20512e-07
6.39043e-07 1.92989e-07 -1.83526e-07
-3.11613e-07 6.34185e-08 3.71937e-08
-8.10169e-08 -2.0386e-08 3.61039e-08
-7.83547e-08 -1.99607e-08 3.67376e-08
-2.91154e-07 2.78718e-07 -8.99628e-08
-2.89759e-07 2.74831e-07 -8.92517e-08
3.10383e-07 4.1122e-07 2.9589e-07
3.07585e-07 4.03032e-07 2.92006e-07
2.80807e-07 2.25174e-07 1.33803e-07
-2.16423e-08 1.7676e-07 -8.38467e-09
-3.80032e-07 8.30404e-09 3.70548e-09
-3.80897e-07 1.00307e-08 2.4789e-09
-1.31623e-08 1.77797e-07 -7.17625e-09
-1.05481e-07 1.38233e-07 -5.0064e-09
-5.40135e-08 -2.79573e-08 3.35262e-08
-5.73363e-08 -3.27885e-08 3.48101e-08
-2.64488e-07 1.66319e-07 5.1837e-08
-2.68362e-07 1.71055e-07 5.0716e-08
-9.79486e-08 1.42132e-07 -6.47203e-10
3.26906e-08 1.66119e-07 9.51602e-09
5.55033e-07 1.98492e-07 1.75788e-07
5.28572e-07 2.02736e-07 1.86572e-07
-1.00264e-07 -7.12682e-08 9.11744e-09
-1.0175e-07 -6.95868e-08 8.94938e-09
-9.63304e-08 -7.49752e-08 5.26906e-09
-9.80157e-08 -7.40572e-08 6.57547e-09
-3.10833e-07 6.26759e-08 3.39203e-08
-3.60938e-07 -9.27834e-08 1.76937e-08
6.25052e-07 1.72771e-07 1.39579e-07
6.16283e-07 1.79722e-07 1.54237e-07
7.29431e-09 2.93442e-07 -1.74605e-08
1.50194e-08 2.98422e-07 -1.23704e-08
-3.06986e-07 8.20863e-08 4.69673e-08
-3.084e-07 7.90091e-08 4.55574e-08
-3.08258e-07 1.85828e-08 1.34938e-08
-3.10242e-07 1.91186e-08 1.2898e-08
4.68753e-07 3.7005e-07 3.65878e-07
-3.62267e-07 -1.08671e-07 -1.55458e-08
4.70388e-07 3.73849e-07 3.68378e-07
-1.08853e-07 1.47701e-07 3.0164e-08
-3.57161e-07 -9.09714e-08 1.8605e-08
-2.58023e-07 1.9938e-07 -8.321e-08
-2.54268e-07 1.93891e-07 -8.55706e-08
-3.12273e-07 6.40797e-08 3.59088e-08
6.69299e-08 1.62723e-07 7.42255e-09
-3.8097e-07 -6.34065e-10 1.58237e-09
3.62575e-07 1.9749e-07 -1.09604e-07
-3.83825e-07 1.21369e-08 3.03222e-09
1.43328e-07 4.2328e-07 1.85969e-07
-9.75728e-08 2.0718e-07 -8.50222e-08
-9.7228e-08 2.01916e-07 -8.25423e-08
-1.49164e-07 1.3814e-07 -7.03824e-08
5.81914e-08 -8.80099e-08 6.55476e-08
-2.20488e-07 -7.83941e-08 -3.53917e-08
-2.19577e-07 -7.94385e-08 -3.4586e-08
-1.97961e-08 3.19719e-07 -2.91374e-08
-3.87998e-08 3.12704e-07 -2.45078e-08
-1.52091e-07 1.33518e-07 -6.84915e-08
1.84626e-07 2.74079e-07 1.13128e-07
1.8402e-07 2.73928e-07 1.06502e-07
-1.72481e-07 1.10563e-07 -3.56371e-09
7.62354e-08 2.58823e-07 2.24847e-08
6.67405e-08 2.56673e-07 1.77194e-08
-1.86042e-07 1.13944e-07 2.02511e-08
-1.78524e-07 1.18244e-07 2.54783e-08
1.25936e-07 -5.71162e-08 1.30353e-08
-1.73089e-07 1.0755e-07 -3.47608e-09
1.31287e-07 -5.70293e-08 8.96543e-09
2.24131e-07 1.55935e-07 7.33559e-08
2.3565e-07 1.54909e-07 6.91471e-08
6.44755e-07 2.65276e-07 -3.59061e-07
6.66283e-07 2.49511e-07 -3.48807e-07
1.49085e-07 4.30368e-07 -2.2512e-07
1.48583e-07 4.17327e-07 -2.16654e-07
-2.79889e-07 7.21013e-08 -5.70897e-10
-2.82844e-07 7.09057e-08 -4.28944e-09
-4.91686e-08 2.49209e-07 -5.83535e-08
-4.91724e-08 2.49332e-07 -6.13567e-08
7.49443e-07 2.6715e-07 -3.61237e-07
7.4841e-07 2.59976e-07 -3.41399e-07
6.9123e-08 -7.27738e-08 -5.17829e-08
6.96717e-08 -7.18454e-08 -5.3705e-08
-2.28078e-07 -6.02578e-08 -6.34609e-08
-2.26098e-07 -6.20165e-08 -6.30937e-08
-7.84684e-09 1.64867e-07 1.74533e-08
-1.59303e-08 1.60561e-07 1.78265e-08
-1.04208e-07 1.68906e-07 -7.21696e-08
-1.04518e-07 1.6863e-07 -7.61663e-08
-4.7084e-08 2.37843e-07 2.5597e-08
-5.97913e-08 2.30575e-07 2.63224e-08
-2.50847e-07 1.13698e-07 -7.98261e-08
-2.42852e-07 1.17257e-07 -8.22569e-08
-1.73214e-08 -8.83721e-08 6.05184e-08
-1.69509e-08 -9.34989e-08 6.22997e-08
-2.88061e-07 1.23864e-07 -7.97586e-08
-2.95511e-07 1.16719e-07 -7.38089e-08
-2.29736e-07 -3.51158e-08 -6.52566e-08
-3.90551e-07 -6.1446e-09 1.51307e-09
-4.01206e-07 -9.80754e-08 9.62599e-09
-2.35081e-07 -3.72548e-08 -6.86429e-08
1.08559e-08 3.9104e-07 5.96542e-08
1.18214e-08 3.97088e-07 5.95795e-08
1.4593e-07 4.33154e-07 -2.4045e-07
1.45034e-07 4.33924e-07 -2.35388e-07
-2.45873e-07 8.32687e-08 -1.46783e-08
-1.05985e-07 2.23486e-07 -8.84096e-08
1.11175e-07 2.77014e-07 5.3298e-08
1.12167e-07 2.7813e-07 6.01111e-08
-3.80838e-07 4.15172e-08 6.7619e-09
-3.83457e-07 2.57512e-08 5.10246e-09
-2.23357e-07 1.95739e-07 5.13024e-08
-2.16437e-07 1.98199e-07 4.85324e-08
-2.47944e-07 2.19113e-07 -7.8887e-08
-2.47657e-07 2.16481e-07 -7.91062e-08
-2.46217e-07 1.23255e-07 4.68067e-08
7.9733e-08 4.2797e-07 1.42946e-07
-2.49581e-07 1.18264e-07 4.37129e-08
-1.32791e-07 2.60182e-07 -8.19939e-08
-1.30384e-07 2.5335e-07 -8.37183e-08
-3.14582e-07 8.13397e-08 5.25963e-08
-3.13964e-07 8.38473e-08 5.34309e-08
-2.29182e-07 2.42778e-07 -7.76816e-08
-2.26202e-07 2.37735e-07 -8.12821e-08
-3.69815e-07 1.98519e-08 8.85363e-09
-3.70022e-07 2.05905e-08 9.7507e-09
4.71396e-07 1.50382e-07 -5.8318e-08
4.80466e-07 1.55542e-07 -7.55854e-08
-1.22779e-07 1.46413e-07 3.50529e-08
-1.22919e-07 1.44995e-07 3.17694e-08
-1.37728e-07 1.35115e-07 -5.58151e-08
-1.33064e-07 1.39404e-07 -5.78013e-08
-2.38532e-07 1.30358e-07 4.77939e-08
-2.42282e-07 1.25294e-07 4.55357e-08
-4.10308e-07 -5.35345e-08 8.82292e-09
5.32907e-08 3.16021e-07 -5.72646e-08
4.86646e-08 3.17795e-07 -5.13827e-08
4.04456e-07 3.30577e-07 2.6776e-07
3.75573e-07 3.4336e-07 2.73202e-07
-3.07962e-07 6.59194e-08 3.49057e-08
-3.11322e-07 6.37658e-08 3.29247e-08
-7.82564e-08 2.56313e-07 -7.49678e-08
-7.69029e-08 2.59862e-07 -7.19474e-08
-4.19434e-07 3.04967e-08 -5.34953e-09
6.96285e-07 2.54518e-07 2.95008e-07
6.95726e-07 2.54392e-07 3.04994e-07
-4.2364e-07 2.53697e-08 -4.30745e-09
-4.14495e-07 -4.77576e-08 6.335e-09
-4.16459e-07 -4.77515e-08 6.96163e-09
2.21856e-07 2.22114e-07 -7.38305e-08
-3.78488e-07 6.16526e-08 1.04436e-08
-3.74392e-07 6.48597e-08 1.22705e-08
-3.57595e-07 -1.70943e-07 3.76685e-08
-3.61014e-07 -1.73499e-07 4.01695e-08
2.35791e-07 2.2253e-07 -7.53664e-08
2.50011e-07 1.67924e-07 -4.08422e-08
-1.46509e-08 1.71743e-07 -8.26031e-10
-1.0983e-07 2.28017e-07 3.55163e-08
-1.12336e-07 2.26616e-07 3.91746e-08
-3.59683e-07 3.13958e-08 2.76424e-09
-2.13316e-09 1.74223e-07 6.81514e-10
2.01607e-07 1.87294e-07 -4.01513e-08
2.04821e-07 1.95246e-07 -4.57641e-08
2.08479e-07 1.92434e-07 -4.80567e-08
-4.87781e-08 2.11609e-07 -5.69496e-08
7.6284e-07 1.43673e-07 5.69975e-08
-2.26751e-07 8.87231e-08 -2.73367e-08
-4.83548e-08 2.144e-07 -6.12394e-08
2.97732e-07 1.95952e-07 -8.54254e-08
-1.17891e-08 2.53706e-07 4.88707e-09
6.4535e-08 1.59924e-07 1.07118e-08
-2.39458e-07 1.11761e-07 -8.01562e-08
-2.45665e-07 1.07638e-07 -7.48312e-08
-2.40027e-08 4.42176e-07 1.97661e-07
-1.39126e-08 4.37489e-07 2.03686e-07
-4.74116e-08 2.19171e-07 -5.75939e-08
2.11754e-08 1.85307e-07 -3.51665e-09
4.9947e-08 4.27104e-07 -1.77175e-07
5.94805e-08 4.21248e-07 -1.83776e-07
-3.2121e-07 5.07647e-08 2.03866e-08
-3.21642e-07 5.05803e-08 2.3381e-08
2.69486e-08 1.85769e-07 2.68983e-10
6.68223e-08 1.6056e-07 8.14823e-09
-1.71367e-07 1.08291e-07 -2.32119e-08
-1.6743e-07 1.09773e-07 -1.78602e-08
-1.68122e-07 1.10033e-07 -1.87133e-08
1.71241e-07 2.11115e-07 -4.00553e-08
1.7682e-07 2.02926e-07 -3.73451e-08
-2.87238e-07 -1.56827e-07 -6.16646e-09
1.79141e-07 2.12863e-07 -4.41381e-08
-1.40911e-07 1.25053e-07 -2.01766e-08
-1.39566e-07 1.25245e-07 -2.11766e-08
-1.43216e-07 1.21618e-07 -1.86676e-08
1.93972e-07 -7.49367e-08 8.99671e-08
-2.77007e-07 7.30797e-08 -2.82161e-08
1.5396e-08 -4.18574e-08 1.21528e-08
-2.77116e-07 7.43883e-08 -2.65563e-08
1.65503e-07 -5.24072e-08 1.22843e-08
1.87308e-07 -8.04144e-08 9.81189e-08
1.97702e-07 -7.92222e-08 9.82313e-08
1.79157e-07 2.14242e-07 8.45009e-08
6.80473e-08 1.57571e-07 1.04084e-08
-3.10248e-07 -1.90023e-07 -4.39532e-08
-3.1094e-07 -1.83403e-07 -4.20196e-08
7.37764e-08 1.59535e-07 8.74566e-09
-4.16648e-07 -3.28104e-08 3.80273e-09
2.0703e-08 4.02791e-07 -1.31119e-07
-4.28493e-09 3.96712e-07 -1.22655e-07
-1.9589e-07 1.18532e-07 3.07224e-08
-4.16397e-07 -1.81154e-08 1.77877e-09
-1.99022e-07 1.14354e-07 2.79019e-08
-1.07003e-07 1.64509e-07 -7.03681e-08
-2.45654e-08 3.8484e-07 3.50458e-08
-2.40991e-08 3.90172e-07 3.54928e-08
-1.12875e-07 1.62594e-07 -7.24557e-08
-1.07242e-07 1.66035e-07 -7.43458e-08
1.91099e-07 1.87516e-07 -3.42308e-08
7.81409e-08 2.59801e-07 2.86058e-08
7.88334e-08 2.62889e-07 2.51926e-08
-3.44397e-07 7.01072e-08 -4.21947e-08
-3.4252e-07 6.82109e-08 -3.95679e-08
-3.80057e-07 9.22828e-08 1.15962e-08
2.01537e-07 1.44302e-07 4.63156e-08
2.04438e-07 1.41855e-07 4.88673e-08
1.91993e-07 1.92e-07 -4.0645e-08
1.92819e-07 1.94835e-07 -3.87871e-08
-2.48301e-08 -2.84444e-08 2.49136e-08
-2.63372e-08 -2.89765e-08 2.50632e-08
1.90081e-07 1.41968e-07 3.73311e-08
1.86497e-07 1.43881e-07 3.98885e-08
-1.24009e-07 2.78247e-07 1.31593e-08
-3.07531e-07 -6.84851e-09 -2.8349e-08
-1.11818e-07 2.88052e-07 1.09481e-08
-1.00873e-07 2.20307e-07 -8.8857e-08
-1.0131e-07 2.15525e-07 -8.52533e-08
1.17114e-07 2.28783e-07 -2.81632e-08
1.31633e-07 2.25376e-07 -2.89729e-08
2.23289e-07 1.37022e-07 9.99958e-09
2.14406e-07 1.37958e-07 1.33396e-08
2.52806e-07 1.31531e-07 2.14817e-08
-3.14069e-07 -8.9359e-08 3.7473e-08
-3.55521e-07 -1.31424e-07 -6.94003e-09
-3.55029e-07 -1.27638e-07 -7.03406e-09
2.59933e-07 1.33234e-07 1.60484e-08
3.21024e-07 2.688e-07 -1.55542e-07
2.17994e-07 1.34865e-07 1.55562e-08
-2.31171e-07 1.73679e-07 -9.68464e-08
-2.39192e-07 1.65442e-07 -9.25011e-08
-2.21076e-07 3.24738e-07 -3.53948e-08
-2.37187e-07 3.21826e-07 -2.96233e-08
-7.90531e-08 2.25158e-07 -7.52526e-08
-7.81203e-08 2.32342e-07 -7.58803e-08
-7.83526e-08 2.27523e-07 -7.95022e-08
-4.5538e-08 -1.72716e-08 3.44605e-08
2.58037e-07 2.15893e-07 1.18346e-07
-4.87095e-08 -1.58461e-08 3.54876e-08
3.9859e-07 -1.33219e-07 1.76224e-07
4.05887e-07 -1.23074e-07 1.64363e-07
9.77591e-07 1.5105e-07 -1.70433e-07
9.64328e-07 1.58792e-07 -1.93007e-07
-4.74677e-08 -1.62427e-08 3.60926e-08
7.30622e-07 1.55579e-07 1.06731e-07
-1.20049e-07 1.72018e-07 -8.63247e-08
7.27696e-07 1.59171e-07 1.11237e-07
-3.0625e-07 1.15197e-07 5.43741e-08
-3.09187e-07 1.12095e-07 5.42943e-08
-3.06688e-07 1.15484e-07 5.39279e-08
-3.38166e-07 2.78708e-08 3.41715e-08
-3.39942e-07 2.7185e-08 3.37227e-08
-3.37572e-07 2.93742e-08 3.61281e-08
1.67336e-08 2.28446e-07 -1.93408e-08
2.0928e-08 2.288e-07 -1.42878e-08
2.58949e-07 1.42609e-07 5.95186e-08
2.62301e-07 1.41586e-07 6.03672e-08
-1.97728e-08 2.91985e-07 -1.25709e-08
-1.3721e-08 2.98628e-07 -1.63467e-08
-1.5399e-07 3.29658e-07 -3.4149e-08
-1.42948e-07 3.32713e-07 -2.84064e-08
3.17645e-08 2.3073e-07 -1.00544e-08
-8.05143e-08 -2.3064e-08 3.10022e-08
-1.49207e-07 1.59325e-07 -9.09276e-08
-3.47454e-07 -1.03231e-07 -2.61532e-08
-3.48553e-07 -1.1435e-07 -2.87027e-08
-8.41858e-08 -2.45143e-08 3.14951e-08
-8.21657e-08 -2.23137e-08 3.19524e-08
-1.36223e-07 1.43155e-07 -6.5268e-08
-1.24031e-07 1.5121e-07 -6.61804e-08
-1.27537e-07 1.4576e-07 -6.69251e-08
-2.91554e-07 6.71528e-08 -8.41366e-09
-1.77761e-07 1.65544e-07 -9.66524e-08
-2.66842e-07 1.33343e-07 -8.47129e-08
-2.70175e-07 1.38286e-07 -8.64691e-08
-5.42494e-08 2.6279e-07 -6.10829e-08
-4.8212e-08 2.68984e-07 -5.86886e-08
-1.91291e-07 1.08574e-07 -5.33712e-08
-1.8815e-07 1.1138e-07 -5.70902e-08
-1.78021e-07 1.69143e-07 -9.95526e-08
-1.85573e-07 1.63306e-07 -9.64901e-08
-1.24841e-07 2.24809e-07 4.07822e-08
-1.24372e-07 2.16048e-07 3.83767e-08
2.93609e-07 3.56412e-07 -2.28556e-07
2.77084e-07 3.55363e-07 -2.19554e-07
4.02103e-09 1.99863e-07 1.78401e-08
8.5254e-09 1.99651e-07 1.40318e-08
3.22996e-07 1.37349e-07 -1.30987e-08
3.16988e-07 1.34943e-07 -4.10246e-09
-2.61643e-07 1.64148e-07 5.11166e-08
-2.61078e-07 1.64539e-07 5.23853e-08
3.20184e-07 1.35642e-07 -1.33503e-08
-6.57229e-08 1.48537e-07 2.17363e-08
-7.83502e-08 1.48814e-07 2.08253e-08
-1.56545e-07 1.50375e-07 4.17423e-08
-1.51715e-07 1.5138e-07 3.99854e-08
-7.79958e-08 1.43636e-07 2.00397e-08
1.24253e-07 2.49386e-07 5.93727e-08
1.21983e-07 2.41496e-07 5.786e-08
1.29137e-07 2.41233e-07 6.27888e-08
-2.32159e-08 2.13723e-07 1.97259e-08
-2.6289e-08 2.13402e-07 2.36275e-08
-4.2323e-08 2.77622e-07 -5.4866e-08
-5.3952e-08 2.6907e-07 -6.27819e-08
7.5345e-07 2.26364e-07 -3.61349e-07
8.14165e-07 2.14419e-07 -3.52629e-07
-5.20255e-08 2.71497e-07 -5.79841e-08
-1.95803e-07 2.1963e-07 4.51248e-08
4.52329e-07 1.47717e-07 7.33204e-08
4.49423e-07 1.50927e-07 7.44938e-08
-1.8513e-07 2.24823e-07 4.25385e-08
-1.96365e-07 2.18815e-07 4.339e-08
-7.87878e-08 1.89282e-07 3.29513e-08
-7.79651e-08 1.92907e-07 3.63362e-08
-9.0359e-08 1.85307e-07 3.52443e-08
-1.39242e-08 2.21528e-07 -3.75148e-08
2.36426e-07 1.93362e-07 1.00239e-07
2.38442e-07 1.90771e-07 1.0316e-07
-2.8969e-07 1.69216e-07 -7.79443e-08
-2.86614e-07 1.64125e-07 -7.76171e-08
-1.31163e-08 2.27327e-07 -4.04406e-08
-3.40221e-07 3.69203e-08 1.49594e-08
5.51499e-07 3.25014e-07 -3.42482e-07
-3.85965e-07 -2.49655e-08 1.74866e-09
-3.90316e-07 -1.37721e-08 1.80708e-09
5.52395e-07 3.33758e-07 -3.58802e-07
-3.38159e-07 3.75751e-08 1.77797e-08
-3.38156e-07 3.76593e-08 1.86327e-08
4.79275e-08 -2.02905e-07 -1.5058e-07
6.29427e-08 3.14168e-07 2.96861e-08
6.17838e-08 3.2175e-07 3.55261e-08
-1.18906e-07 2.79509e-07 -7.37117e-08
-1.19688e-07 2.78296e-07 -7.15736e-08
1.30237e-07 2.24065e-07 6.10137e-08
1.32482e-07 2.30927e-07 6.02521e-08
-3.60287e-07 -1.20751e-07 -5.63709e-09
-3.5809e-07 -1.20809e-07 -3.2696e-09
-3.50055e-07 4.49582e-08 -1.22448e-08
-3.49517e-07 4.58298e-08 -1.2782e-08
-1.89574e-07 1.02581e-07 -2.64299e-08
-1.83274e-07 1.0442e-07 -2.55956e-08
-1.15371e-07 1.77391e-07 -8.66725e-08
-1.15344e-07 1.74228e-07 -8.32241e-08
-3.51899e-07 -1.82523e-07 3.29343e-08
-3.53547e-07 -1.75674e-07 3.11476e-08
-1.86724e-07 1.03751e-07 -3.10226e-08
-7.37346e-08 1.68404e-07 -4.05751e-08
2.55366e-07 1.31631e-07 1.57504e-08
2.45276e-07 1.32526e-07 1.11932e-08
4.75345e-07 2.87107e-07 -2.56361e-07
4.77154e-07 2.95937e-07 -2.71367e-07
2.51937e-07 1.34096e-07 1.27604e-08
1.5743e-07 2.06525e-07 7.09818e-08
-2.29724e-07 8.93973e-08 -3.98668e-08
-2.32434e-07 8.81356e-08 -3.51166e-08
-1.31316e-07 3.58619e-07 -5.93278e-08
-1.68331e-07 1.32076e-07 -7.44075e-08
4.90584e-07 2.70667e-07 -2.44731e-07
-3.98643e-07 -1.02432e-07 4.23132e-09
4.97105e-07 2.67357e-07 -2.50723e-07
-1.38402e-07 3.59713e-07 -5.32038e-08
-1.02815e-07 1.49682e-07 -3.00895e-08
-3.42842e-07 -1.83962e-07 3.80074e-08
-3.47845e-07 -1.87938e-07 4.11248e-08
-1.23685e-07 1.45764e-07 -5.83953e-08
-1.28038e-07 1.41342e-07 -5.72055e-08
8.14116e-08 2.26512e-07 2.55286e-08
8.18929e-08 2.24322e-07 2.95701e-08
-1.33146e-07 3.47671e-07 -4.73523e-08
-2.28219e-07 -3.43584e-08 1.81568e-08
9.86092e-07 1.45209e-07 -1.36281e-07
9.88219e-07 1.41067e-07 -1.33499e-07
6.73107e-08 1.89054e-07 2.18108e-09
7.62143e-08 1.91204e-07 1.23124e-10
-2.3244e-07 -3.11851e-08 1.32163e-08
-8.35748e-08 -3.87085e-08 3.37566e-08
5.87394e-08 -8.1157e-08 -5.99311e-08
5.05573e-08 -8.24491e-08 -6.1149e-08
-3.17959e-07 6.66611e-08 -3.79877e-08
-3.16117e-07 6.91924e-08 -4.21862e-08
5.78664e-08 2.52942e-07 8.34746e-09
5.8157e-08 2.59264e-07 1.35052e-08
-1.87462e-07 2.86891e-07 -5.90054e-08
-1.81899e-07 2.97521e-07 -5.88294e-08
-7.9221e-08 -4.037e-08 3.46973e-08
-8.29767e-08 -3.95419e-08 3.52191e-08
5.9329e-08 1.87538e-07 1.40603e-08
5.57872e-08 1.88477e-07 9.7551e-09
-2.50001e-07 1.7545e-07 -9.27088e-08
-2.49565e-07 1.71674e-07 -9.03859e-08
4.32097e-08 1.89709e-07 7.24439e-09
2.27765e-07 2.38536e-07 1.19295e-07
5.14174e-07 1.57195e-07 -8.04656e-08