# vtk DataFile Version 2.0
S, Created by Mohamad Ibrahim Cheikh
ASCII
DATASET UNSTRUCTURED_GRID
POINTS 6172 double
-13.6953 5.50153 -87.697
-10.7853 3.87377 87.8337
66.3955 -75.6856 38.4183
69.2459 -76.9999 35.0424
-231.056 33.8248 7.98046
-79.5723 83.4415 2.51311
-62.9742 -66.4372 53.3345
-60.5885 -69.0122 50.3177
-39.3269 26.6703 -82.7245
-127.895 -17.9863 -73.6063
-131.724 -16.4 -73.1487
-115.93 32.7898 -70.8759
-120.807 30.696 -70.8165
-6.69893 -8.02287 87.6022
22.1364 -7.76174 87.3142
18.8252 -4.38997 87.6433
175.569 -13.3238 61.5842
174.397 -8.77368 62.7962
-76.4992 83.8241 -1.01787
-13.898 1.17948 87.8576
-164.211 -34.4502 -57.0599
-161.299 -31.5167 -59.7107
-135.69 15.1003 -72.5384
-130.707 15.0673 -73.6569
-17.2103 -2.24618 -87.765
-22.7946 -81.8066 -31.4335
-26.8516 -82.4306 -29.3416
-30.1335 -4.62746 87.2434
35.3145 56.7321 -66.127
-161.945 53.4174 -40.984
-166.518 50.3632 -42.5765
-157.378 -35.3544 58.8363
-151.826 -35.5129 60.5036
-207.912 22.4565 -44.1286
-59.0893 75.636 39.9464
-56.2497 74.2229 42.9836
-57.873 71.7294 46.7851
-175.785 38.1195 50.0776
-176.58 33.7309 52.8091
-241.912 -23.8774 3.01031
77.4189 -67.8598 -49.0432
74.4376 -70.2469 -46.1626
-244.58 -20.1898 3.55291
-150.014 50.1338 -49.7536
-148.765 53.5551 -46.5439
-157.297 53.2851 -43.307
-152.592 55.4204 -42.6834
-183.32 -53.182 28.3067
-185.163 -50.1323 32.1429
-185.015 21.127 55.7386
-181.742 25.0983 55.4094
-189.112 -8.80958 -57.3398
-193.88 -7.93121 -55.4886
-172.443 58.1961 -26.7686
-3.74522 -12.2362 87.1353
-223.989 -14.8932 -37.1449
-226.096 -38.4396 2.79169
-229.554 -35.9444 0.728432
-249.576 -6.28 8.86446
-248.355 -11.6362 7.55223
-199.329 -53.5648 -3.22703
-197.934 -53.7181 -7.86241
-240.998 -0.885876 -25.1479
-225.919 -18.0979 -34.171
-184.462 -39.8319 44.6269
-68.775 -28.5446 -79.6876
-72.7671 -30.2707 -78.6092
-188.568 -40.5187 41.8194
-223.615 -23.0445 -33.0297
-218.427 -24.8503 -35.8506
-221.291 41.8141 0.434411
-223.723 40.0413 3.57445
165.504 -20.8814 62.884
-241.156 24.883 -2.18349
-115.893 71.7829 30.7707
-120.229 71.4402 29.5054
-29.5635 21.9235 84.5953
4.67549 17.5123 -86.2244
-28.8646 26.4103 83.3336
-228.668 0.770219 36.6282
-230.789 -3.19298 34.8241
157.315 5.59454 -68.4308
155.509 0.682766 -69.1577
-223.732 -5.43093 39.8262
-220.246 -8.93715 41.5357
152.092 -9.51567 -69.4362
22.1776 -16.7287 86.0461
27.0541 -15.7593 86.0583
148.072 -6.17612 -70.8626
167.876 -65.259 5.90504
171.472 -64.3369 2.23616
-163.061 61.1654 27.3401
-228.678 5.80026 36.1667
-197.125 -44.695 31.4473
-195.008 -43.0328 35.1622
7.01268 87.5286 8.75856
-236.679 12.2701 -27.1154
4.87715 86.919 13.6448
-165.172 -65.5337 10.4496
-237.547 19.6196 21.2243
172.286 29.9821 -56.666
-235.276 23.7947 20.0168
-240.238 -26.0209 -0.944024
-236.841 -29.6044 0.126593
-20.4239 -9.72796 -87.1682
-242.551 11.8893 -19.9978
-173.812 -62.3751 12.4359
-248.324 8.76991 -10.8354
-246.254 12.8665 -12.4154
-213.991 4.39443 -46.0253
-215.692 -0.352721 -45.2549
-238.097 28.3167 1.23884
-234.886 31.4522 -0.28659
-170.416 -64.1161 8.80711
191.667 2.04773 56.9399
187.766 -0.72308 58.541
153.557 -31.6917 -62.0705
155.356 -27.4574 -63.523
10.4438 23.8253 -84.6345
161.64 -25.6666 -62.3413
-207.707 -13.6632 -47.701
214.729 -35.1746 -29.3543
217.748 -31.3105 -30.9627
-236.895 -3.13179 29.3847
-117.77 76.7846 12.2494
-105.841 -63.6114 -48.2294
-100.781 -66.2124 -46.0045
131.982 22.732 71.3766
135.145 24.9737 69.8872
-112.631 77.5411 13.3509
-239.896 22.8523 13.2622
-242.209 18.7058 14.5499
-230.93 18.8171 29.3409
-17.4398 87.5055 -7.0392
-13.0699 87.7351 -5.06411
-232.411 14.5171 30.3347
-35.0578 19.9558 84.8251
-237.438 -27.6179 8.88951
-240.254 -24.7605 8.00037
153.423 0.726022 69.7255
149.444 -1.79169 70.7566
-46.2722 65.8065 -56.137
-51.4441 65.2582 -56.2259
13.8933 87.7983 -3.43911
18.6171 87.7363 -1.97659
190.139 45.8464 -34.8701
192.318 42.4271 -37.6256
47.8931 -86.1471 6.4687
52.393 -85.7736 7.12813
169.66 59.7209 -25.56
170.813 60.9967 -21.2426
193.705 22.7431 51.3125
195.311 18.4279 52.2887
138.833 -70.2045 21.3436
-201.71 -20.0293 -48.5951
-107.573 78.7811 10.9901
-108.538 79.1504 6.0756
-206.133 -19.2903 -46.5802
151.262 -23.7726 -66.1637
-15.3389 -58.6644 -65.3734
-12.7358 -61.7529 -62.5358
-5.58715 -7.83013 -87.6291
-172.492 32.1679 55.3759
-97.1186 -18.4911 79.0399
-100.298 -15.8419 79.1292
-93.5768 -75.4934 -31.1876
197.267 -38.7725 -38.4241
193.384 -38.2897 -41.2231
7.64934 83.5956 -27.3608
5.47187 82.1813 -31.4097
-97.7626 -73.6069 -33.9983
-226.588 25.8846 28.0738
-223.683 28.9021 27.9814
-211.559 -41.4481 23.3756
-210.429 -38.9609 28.3685
-213.722 -35.0061 30.4354
9.77794 -74.7217 46.3568
13.4373 -76.4817 43.2718
70.8121 -73.3067 41.9072
111.526 9.17937 -78.3387
11.9663 -72.2298 50.0932
156.097 34.4018 -59.8109
158.645 30.9005 -60.8916
-136.468 71.9358 17.0042
-136.294 69.3217 25.7725
-139.884 69.9871 21.2168
-43.7804 79.5695 -34.3224
-52.3635 79.5709 -32.8142
101.663 -72.5831 34.7899
20.8068 19.5812 -85.4844
-49.0178 78.4797 -35.9273
-73.0322 77.4072 33.1528
-78.6229 77.2999 31.8107
-58.5498 85.2645 -7.36592
210.756 4.45373 -47.8125
209.969 -0.224315 -48.4393
-77.0084 79.1841 27.3466
-69.3513 -76.5045 36.0861
157.612 -62.5144 28.1885
161.768 -60.6128 29.4315
42.5825 -24.7518 -83.1225
-66.0764 -75.4584 38.9292
-41.9559 -36.7461 -78.6016
-37.1914 -34.3859 -79.9516
2.50219 71.2789 -51.5999
6.85353 68.8744 -54.7226
-67.0308 -72.4759 44.0585
-159.388 -46.5127 -49.7019
-154.454 -45.7299 -52.2691
-153.795 -41.7975 -55.6877
78.927 -18.0351 81.5847
86.6807 -46.3702 68.366
83.3216 -14.8086 81.699
-7.51944 71.6877 -50.9701
-12.8297 69.5022 -53.7893
-9.32762 77.5873 -41.3951
-6.11973 75.3429 -45.4187
-101.85 2.33195 80.4272
-104.938 -0.42718 79.9725
88.913 -49.6719 65.6417
2.87506 -30.0365 82.7091
94.2878 -50.5086 64.0659
131.929 17.5287 72.841
136.327 16.0204 72.194
-67.7825 -69.0902 -49.0717
-63.8451 -67.1035 -52.3648
-145.263 -22.8709 -68.0991
-150.296 -25.4444 -65.8105
-125.69 31.3655 69.4699
-125.025 35.8397 67.4223
105.229 -74.0028 30.1974
110.016 -72.782 31.0635
238.297 25.0249 -12.8647
240.047 21.5804 -14.9516
-48.1574 78.0002 37.095
69.1904 -69.7054 -47.9484
64.9314 -65.292 -54.4497
69.4671 -66.9696 -51.6552
-88.7294 -67.4717 47.1984
-88.3182 -64.5483 51.2108
-168.051 35.5015 55.0097
-130.756 -75.0707 -3.89547
-128.575 -75.6308 0.165458
52.9554 -81.5865 27.282
47.0652 -79.7548 33.3462
47.9298 -81.3274 29.1308
-73.9388 -67.5245 -50.151
85.1877 -71.811 -41.2155
-0.667298 -81.5 -33.1918
-5.59186 -81.7694 -32.4644
80.9656 -73.4981 -39.2357
81.1171 -76.0697 -33.9383
31.8658 85.884 15.6084
27.051 86.0579 15.7621
25.3301 85.2446 19.9699
164.744 -39.3784 53.577
164.114 -35.8887 56.2007
161.404 -42.4816 52.4389
-77.7535 63.2226 -54.8337
-187.314 1.83471 58.6939
114.653 -14.5064 -76.9686
115.453 -9.46985 -77.6041
-10.9786 7.82373 87.5673
205.487 -31.5978 39.6984
-109.774 -76.1369 21.7217
213.505 -27.4426 37.5495
209.078 -27.7751 40.2573
-237.487 -0.668323 -28.9565
-161.964 -67.0318 6.25255
240.196 -15.6386 -20.8788
241.312 -11.2831 -22.0762
-204.603 20.185 47.025
-235.581 -4.7845 -30.4367
61.4017 -75.7567 39.2853
-203.822 31.0776 -41.1337
-198.841 33.7288 -42.0205
43.7754 63.6109 58.8477
48.6594 64.9056 56.9331
7.35079 -82.0725 31.6464
13.0289 -82.9031 29.1599
-64.2837 -63.2884 -56.8564
-69.5321 -57.4448 -62.0659
-69.4551 -61.3605 -58.209
-73.6679 -55.921 -62.8682
200.798 -32.357 41.96
198.509 -29.5922 45.2089
-71.0347 -50.0331 -67.992
-65.588 -50.4768 -68.3332
-40.4051 -0.235403 -86.8566
53.6088 2.82773 85.9311
59.2481 -0.13732 85.5231
-39.9751 4.26233 -86.7766
-17.3241 -79.6886 -36.8373
-17.5123 -77.3274 -41.5563
147.679 -59.676 -38.8932
155.758 -55.392 -41.2977
-106.441 9.71284 -79.1363
-103.841 13.8159 -78.949
153.102 -58.3777 -38.2917
-159.492 -46.4964 49.6761
-156.246 -50.8857 46.5378
26.0648 71.1473 -50.9793
112.347 -57.8879 53.3637
115.337 -54.3812 56.1964
-173.291 -10.5031 62.9056
-168.946 -5.96394 64.9147
-132.316 -62.0285 41.869
-128.045 -64.8477 39.134
-157.32 67.5295 12.3955
-162.175 65.562 15.0199
-167.934 -42.9154 -49.4925
-231.812 -4.28812 -33.8611
83.712 66.6488 -49.4367
88.0438 68.1805 -46.329
234.013 -25.9763 -19.0963
230.497 -27.411 -22.0917
-47.7328 -31.262 -80.5465
-46.3011 -35.4439 -78.9003
14.1369 56.2433 67.4998
18.2454 53.9862 69.2007
-122.708 -71.9189 26.9852
-127.294 -72.0288 23.9173
-176.704 -58.9971 20.9887
-181.619 -57.6865 19.4382
-72.1707 73.3055 -41.6247
-78.7255 72.1367 -42.2079
-185.212 -54.601 23.7258
-196.796 53.0176 -13.8402
35.8791 -18.0978 85.199
-194.156 55.8353 -3.34869
57.1587 -14.3759 84.4828
61.758 -12.422 84.3963
141 -72.4779 -7.54546
-190.565 56.9761 -7.1867
-192.427 55.3324 -12.2048
-170.664 -0.0762988 64.6379
-192.265 53.139 -19.8618
-167.706 4.17832 65.4459
-169.945 9.48277 64.1725
-107.446 60.2282 51.9918
-101.766 62.6575 50.4985
25.879 81.7273 -31.3473
29.5246 82.6009 -28.5372
30.718 84.1306 -23.4632
-179.408 -23.6348 -56.9622
-176.718 -29.3849 -55.2912
71.4578 65.2064 53.5441
73.1415 62.2181 56.7269
-171.35 -29.5513 -57.2369
-118.096 -57.5318 52.2169
-116.188 -53.689 56.6456
-122.618 -58.2982 50.0455
-110.367 -33.4478 71.6514
-147.215 -23.3398 67.4232
-109.709 -41.9291 67.1742
-112.035 -37.5274 69.2745
-62.2547 -71.4215 46.5668
19.5424 -2.61695 -87.6949
-143.448 -39.1185 60.7821
-139.132 -42.2941 59.8768
-185.904 9.91968 -58.4327
-181.372 8.76983 -60.3295
-101.525 -78.2194 -19.0733
-98.1214 -79.442 -15.9448
-118.851 62.4889 -45.932
-123.659 63.4234 -43.0037
-114.718 64.3484 -44.6327
-223.898 -38.2187 12.0762
-226.635 -37.2105 8.42225
-219.89 -41.295 10.9093
-157.476 -67.2684 13.5214
-177.624 -54.9664 29.3254
-80.6311 58.1829 -59.6891
-75.5417 58.5239 -60.1689
-177.053 -3.64143 -62.3923
-90.2343 25.5618 78.0624
-171.975 -4.3075 -64.0665
-152.305 9.21398 -69.4199
-151.252 4.21846 -70.1809
-171.656 -12.9764 -62.9928
-169.819 -9.54682 -64.2041
-124.712 5.94369 76.1873
-129.632 6.9617 75.0876
-57.8406 84.7451 12.356
-55.8773 83.9868 17.5488
-60.1276 83.227 -19.3557
-65.5057 82.3899 -20.7497
-56.7264 39.1178 -76.2878
[...]
POINT_DATA 6172
VECTORS F double
-7.16885e-08 4.33572e-08 4.09048e-09
-9.71705e-08 5.14399e-08 -3.72939e-09
-3.2146e-07 -3.189e-08 5.19276e-09
-3.21875e-07 -3.37532e-08 3.70463e-09
2.65635e-07 2.25785e-07 -1.53738e-08
5.76574e-07 6.79755e-08 -2.18615e-08
-3.40729e-07 6.88516e-08 3.65113e-08
-3.50522e-07 6.13725e-08 3.25004e-08
5.68075e-08 1.27788e-07 3.78924e-08
-1.06818e-07 1.79784e-07 -2.12087e-08
-1.07008e-07 1.83829e-07 -1.7623e-08
1.6512e-07 1.88596e-07 5.41846e-08
1.64857e-07 1.84778e-07 4.56622e-08
-1.39321e-07 4.12344e-08 2.47209e-09
-1.24687e-07 -1.18929e-08 2.81311e-09
-1.19072e-07 -4.24594e-09 2.91874e-09
-7.88954e-08 -1.11515e-07 3.4113e-09
-6.07346e-08 -1.06412e-07 5.78339e-09
5.90168e-07 6.57874e-08 -1.26263e-08
-1.04269e-07 5.80368e-08 -2.79845e-09
-1.86641e-07 1.78431e-07 -4.19678e-08
-1.7886e-07 1.80111e-07 -3.59132e-08
7.62099e-08 1.94562e-07 2.30484e-08
7.89504e-08 2.03447e-07 2.44643e-08
-1.0104e-07 4.6469e-08 1.23638e-09
-3.76049e-07 1.387e-08 -2.71083e-09
-3.78183e-07 1.60749e-08 -2.78818e-09
-1.26505e-07 8.45156e-08 -8.66504e-10
1.99488e-07 -5.70976e-08 -3.59427e-08
3.27652e-07 1.44532e-07 2.98689e-08
3.18578e-07 1.54031e-07 2.96557e-08
-2.06374e-07 1.79587e-07 4.0329e-08
-2.05593e-07 1.84682e-07 4.52373e-08
1.60252e-07 2.12875e-07 1.58899e-08
4.75847e-07 1.06181e-07 -1.1487e-07
4.70092e-07 1.05596e-07 -1.07023e-07
4.21705e-07 1.17494e-07 -1.16273e-07
2.23781e-07 1.94549e-07 -5.19189e-08
1.85076e-07 1.99261e-07 -5.15083e-08
-1.94226e-07 2.41232e-07 2.50729e-09
-2.85997e-07 -5.50167e-08 2.08512e-08
-2.95895e-07 -4.97606e-08 1.73062e-08
-1.74192e-07 2.58886e-07 3.06272e-09
3.03146e-07 1.56303e-07 4.55932e-08
3.36838e-07 1.50322e-07 4.11557e-08
3.35559e-07 1.53507e-07 3.96578e-08
3.39447e-07 1.50085e-07 4.62995e-08
-2.99937e-07 1.44939e-07 3.44932e-08
-2.79632e-07 1.53008e-07 4.14241e-08
1.15972e-07 2.24875e-07 -3.8106e-08
1.32911e-07 2.13015e-07 -4.31135e-08
-3.7963e-08 2.19688e-07 -1.84239e-08
-4.0313e-08 2.10167e-07 -1.27957e-08
3.65536e-07 1.40015e-07 1.61019e-08
-1.5305e-07 2.99228e-08 3.39674e-09
-8.71534e-08 2.27281e-07 -2.67864e-08
-2.62713e-07 1.89777e-07 8.15968e-09
-2.54566e-07 1.99058e-07 8.14579e-10
-6.04212e-08 2.9812e-07 2.94923e-09
-1.08613e-07 2.84569e-07 1.17968e-09
-3.0975e-07 1.41402e-07 -4.66375e-09
-3.11484e-07 1.41669e-07 -7.88151e-09
9.06449e-10 2.6727e-07 -1.04842e-08
-1.13937e-07 2.33967e-07 -3.16912e-08
-2.31186e-07 1.80037e-07 4.36993e-08
-1.97549e-07 1.25565e-07 -2.41043e-08
-1.98996e-07 1.23059e-07 -2.48349e-08
-2.30816e-07 1.7347e-07 4.06522e-08
-1.46469e-07 2.16157e-07 -2.94086e-08
-1.48273e-07 2.13589e-07 -3.74519e-08
3.099e-07 2.0094e-07 -1.38806e-08
2.97899e-07 2.05449e-07 -1.8676e-08
-1.10524e-07 -9.89059e-08 2.77096e-09
2.14376e-07 2.5394e-07 -4.94346e-09
4.63379e-07 1.19849e-07 -6.59171e-08
4.58296e-07 1.1729e-07 -5.53558e-08
-1.42901e-08 1.04462e-07 -2.76833e-08
-2.23649e-08 5.91855e-09 1.05345e-09
1.25869e-08 1.01083e-07 -3.15016e-08
-2.04253e-09 2.61494e-07 -7.05799e-09
-2.97803e-08 2.69356e-07 5.3545e-10
-7.55982e-09 -1.27568e-07 -1.25574e-08
-3.30422e-08 -1.20302e-07 -1.02845e-08
-4.88819e-08 2.57585e-07 1.50668e-09
-6.3824e-08 2.45278e-07 1.13426e-08
-6.31114e-08 -1.21613e-07 -2.58848e-10
-1.56826e-07 -1.08962e-08 2.83047e-09
-1.54397e-07 -1.52647e-08 3.1473e-09
-5.82608e-08 -1.15419e-07 -4.84543e-09
-2.6291e-07 -8.18125e-08 1.09483e-08
-2.57836e-07 -8.36639e-08 1.3505e-08
3.87499e-07 1.42768e-07 -3.64503e-08
4.37203e-08 2.63995e-07 -8.49202e-09
-2.63714e-07 1.69808e-07 3.89563e-08
-2.55757e-07 1.71571e-07 3.63177e-08
7.36799e-07 -2.40914e-09 -4.81474e-08
1.10122e-07 2.54955e-07 -2.31477e-09
6.76941e-07 6.42401e-09 -7.0544e-08
-3.40935e-07 1.08274e-07 1.92521e-08
1.60001e-07 2.62908e-07 -2.37809e-08
9.34698e-08 -1.2424e-07 -3.09436e-08
1.926e-07 2.48985e-07 -1.88133e-08
-2.0837e-07 2.35686e-07 -4.34026e-09
-2.24035e-07 2.19439e-07 1.1011e-09
-1.28627e-07 4.96655e-08 -1.85302e-09
1.0957e-07 2.67871e-07 -3.45782e-09
-3.32609e-07 1.1806e-07 2.30122e-08
8.61076e-08 2.91728e-07 -5.50696e-09
1.19644e-07 2.78995e-07 -1.42032e-09
4.71135e-08 2.18122e-07 -5.99328e-09
6.6543e-09 2.30635e-07 -5.68136e-09
2.37963e-07 2.45611e-07 -1.45725e-08
2.55256e-07 2.33309e-07 -8.61342e-09
-3.407e-07 1.12841e-07 1.43676e-08
-2.17981e-08 -1.18128e-07 1.32321e-08
-2.71153e-08 -1.15659e-07 9.21975e-09
-1.44789e-07 -1.06712e-07 1.06298e-08
-1.24961e-07 -1.13156e-07 1.14941e-08
7.38568e-09 -6.64739e-09 -1.75984e-09
-1.23023e-07 -1.10718e-07 6.53079e-09
-7.19472e-08 2.21205e-07 -2.50061e-08
-1.59695e-07 -1.31949e-07 1.50892e-08
-1.45148e-07 -1.40321e-07 1.69228e-08
-2.95685e-08 2.71999e-07 -1.92561e-10
5.04802e-07 9.96791e-08 -3.0637e-08
-3.22125e-07 9.77006e-08 -4.23132e-08
-3.28661e-07 8.60373e-08 -3.5682e-08
3.913e-08 -1.00613e-07 2.3185e-08
4.35217e-08 -1.02113e-07 2.61859e-08
5.10115e-07 9.80807e-08 -4.27716e-08
1.94254e-07 2.58939e-07 -1.59737e-08
1.62331e-07 2.73298e-07 -2.05101e-08
1.44941e-07 2.50299e-07 -2.08562e-08
7.01732e-07 1.99331e-08 3.49363e-08
7.17531e-07 1.38039e-08 1.24229e-08
1.08914e-07 2.60413e-07 -2.24605e-08
-1.83778e-08 1.11225e-07 -2.70963e-08
-2.12233e-07 2.26898e-07 1.09034e-08
-2.00685e-07 2.40721e-07 7.17251e-09
-3.88143e-08 -1.06515e-07 1.15657e-08
-4.28475e-08 -1.04041e-07 8.44535e-09
3.82829e-07 1.20789e-07 1.02961e-07
3.80759e-07 1.24079e-07 1.01359e-07
7.54671e-07 -1.46648e-08 -1.13155e-09
7.65541e-07 -2.0203e-08 -1.39884e-08
1.58541e-07 -1.06692e-07 -3.44366e-08
1.45021e-07 -1.1444e-07 -3.82933e-08
-3.57496e-07 -2.35152e-08 1.08904e-08
-3.55768e-07 -2.57537e-08 1.02541e-08
2.00336e-07 -8.40897e-08 -3.36718e-08
2.05859e-07 -8.24104e-08 -3.39746e-08
6.46586e-08 -1.08082e-07 1.8022e-08
4.60583e-08 -1.16193e-07 1.98871e-08
-2.80719e-07 -6.669e-08 4.19613e-09
-1.08756e-07 2.11855e-07 -3.20517e-08
5.21052e-07 9.11759e-08 -2.91699e-08
5.21581e-07 8.99795e-08 -3.14277e-08
-1.0969e-07 2.07916e-07 -2.66758e-08
-1.18125e-07 -1.07391e-07 5.52255e-09
-2.99649e-07 1.87782e-08 -8.24341e-09
-3.08172e-07 1.26971e-08 -4.85443e-09
-1.23038e-07 1.85602e-08 -6.98079e-10
1.85454e-07 2.02434e-07 -4.68681e-08
-1.51955e-07 1.75301e-07 1.81521e-08
-1.44476e-07 1.872e-07 1.50578e-08
-3.67492e-07 6.5249e-08 -2.29468e-08
-1.65906e-07 -1.20501e-07 1.73129e-08
-1.67603e-07 -1.22068e-07 1.71201e-08
6.65678e-07 1.72927e-08 7.56193e-08
5.72544e-07 3.96015e-08 1.15826e-07
-3.61037e-07 7.29709e-08 -3.08802e-08
1.92161e-07 2.37259e-07 -2.88695e-08
2.07747e-07 2.26088e-07 -3.02005e-08
-2.59506e-07 1.79323e-07 3.04199e-08
-2.43628e-07 1.81914e-07 2.85873e-08
-2.24813e-07 1.9796e-07 3.44128e-08
-3.45738e-07 2.58524e-09 1.30957e-08
-3.46819e-07 -9.91287e-10 1.14338e-08
-3.12951e-07 -3.70102e-08 1.49128e-12
-1.51887e-08 -1.14595e-07 -1.60753e-08
-3.35959e-07 7.76109e-10 1.09449e-08
9.69431e-08 -1.16606e-07 -3.60939e-08
8.66633e-08 -1.25642e-07 -3.6116e-08
4.66758e-07 1.16202e-07 -3.29618e-08
4.45301e-07 1.25044e-07 -4.80237e-08
4.39763e-07 1.2203e-07 -4.75605e-08
5.35176e-07 7.90381e-08 9.9656e-08
5.34956e-07 8.02358e-08 9.00487e-08
-2.99109e-07 -4.98152e-08 3.08054e-09
-1.01621e-08 -3.0426e-08 -7.27239e-09
5.3552e-07 8.0689e-08 8.68035e-08
5.09847e-07 1.02927e-07 -1.02814e-07
5.037e-07 9.89037e-08 -8.79167e-08
6.29714e-07 5.27144e-08 -2.62189e-09
6.00462e-09 -1.4488e-07 -1.02557e-08
-1.74585e-08 -1.42244e-07 -8.60712e-09
5.48998e-07 9.20955e-08 -7.73933e-08
-3.72478e-07 5.52545e-08 2.95025e-08
-2.52518e-07 -7.64066e-08 3.4137e-09
-2.48891e-07 -8.02367e-08 2.24309e-09
-1.69188e-07 -5.61432e-08 6.10648e-09
-3.71279e-07 5.5899e-08 3.11977e-08
-2.28463e-07 6.93938e-08 -1.75114e-08
-2.23994e-07 6.58167e-08 -1.55502e-08
3.22966e-07 4.50666e-08 6.41712e-08
2.86766e-07 2.04088e-08 3.00835e-08
-3.59352e-07 6.05337e-08 3.26427e-08
-2.43491e-07 1.47175e-07 -4.21325e-08
-2.44005e-07 1.53034e-07 -4.56123e-08
-2.20341e-07 1.553e-07 -4.20616e-08
-1.29981e-07 -6.18837e-08 1.71543e-09
-2.2507e-07 -5.22466e-08 -4.99547e-10
-1.21193e-07 -7.05344e-08 2.34763e-09
3.55174e-07 7.57851e-08 1.00174e-07
3.52064e-07 8.24413e-08 9.62426e-08
4.72008e-07 7.14954e-08 1.20983e-07
4.3321e-07 6.06435e-08 9.34519e-08
-4.96481e-08 1.97686e-07 -1.34291e-08
-5.58133e-08 1.99017e-07 -7.90318e-09
-2.34426e-07 -5.71905e-08 -4.40079e-09
-2.14161e-07 1.94258e-08 7.9662e-09
-2.31848e-07 -5.57026e-08 -2.13942e-09
1.24971e-08 -1.01942e-07 2.17608e-08
1.47742e-08 -9.86264e-08 1.84704e-08
-3.40807e-07 6.07033e-08 -2.78323e-08
-3.38459e-07 6.10954e-08 -2.77694e-08
-1.33717e-07 1.87994e-07 -2.82161e-08
-1.34638e-07 1.80881e-07 -3.22896e-08
1.4136e-07 2.00066e-07 -5.90166e-08
1.86481e-07 1.94554e-07 -6.10822e-08
-2.99389e-07 -5.14102e-08 1.74281e-09
-2.96299e-07 -5.46728e-08 3.78449e-10
1.21983e-07 -1.49617e-07 -1.44095e-08
1.06781e-07 -1.57339e-07 -1.72084e-08
5.13084e-07 8.5369e-08 -9.79563e-08
-2.97754e-07 -4.94155e-08 1.92339e-08
-2.87676e-07 -4.98877e-08 1.7821e-08
-2.86164e-07 -5.01863e-08 1.79487e-08
-3.47633e-07 8.66825e-08 4.39046e-08
-3.35184e-07 9.00756e-08 4.27634e-08
1.92545e-07 1.96059e-07 -5.45148e-08
-3.68372e-07 7.85632e-08 -1.86434e-10
-3.75132e-07 7.8092e-08 6.41461e-09
-3.43838e-07 -2.43071e-08 9.02057e-09
-3.40859e-07 -2.08842e-08 8.95155e-09
-3.46202e-07 -2.24525e-08 7.05577e-09
-3.40027e-07 6.85974e-08 -3.09861e-08
-2.98076e-07 -5.52929e-08 2.09099e-08
-3.657e-07 -4.91002e-10 2.10532e-09
-3.67857e-07 2.14596e-09 2.35196e-09
-3.02943e-07 -5.06624e-08 1.83661e-08
-3.12222e-07 -4.98985e-08 2.04785e-08
5.68831e-07 -1.87453e-08 -3.90355e-08
5.68329e-07 -1.29592e-08 -4.86598e-08
5.6304e-07 -8.93953e-09 -4.92756e-08
-1.7238e-07 -9.54652e-08 -5.27049e-09
-1.56553e-07 -9.2363e-08 -3.01063e-09
-1.83123e-07 -8.78738e-08 -2.18055e-09
3.60733e-07 1.39704e-07 9.84516e-08
1.49422e-09 2.28661e-07 -6.56335e-09
-9.95987e-08 -1.06618e-07 1.93001e-09
-7.37408e-08 -1.09601e-07 -5.71449e-11
-7.74961e-08 5.33931e-08 -5.95987e-09
-1.45666e-07 -1.14656e-07 1.05338e-09
-3.77024e-07 7.39713e-08 2.60049e-08
-1.30935e-07 -1.23098e-07 1.18447e-09
-1.33463e-07 -1.23602e-07 -4.14429e-10
4.51215e-09 2.67286e-07 -1.07039e-08
-3.48665e-07 1.04308e-07 1.25029e-08
-8.69996e-08 -1.72756e-07 6.85521e-09
-6.25745e-08 -1.77389e-07 6.91554e-09
1.28708e-07 2.23889e-07 -2.754e-08
-2.41417e-08 2.52792e-07 -1.68637e-08
-3.23626e-07 -3.05557e-08 3.00512e-09
2.18808e-07 1.96404e-07 1.56458e-08
2.25215e-07 1.93238e-07 2.46292e-08
2.16427e-07 -5.3239e-08 3.78377e-08
2.18678e-07 -5.45662e-08 3.93253e-08
-3.67512e-07 3.26215e-10 1.12979e-08
-3.65754e-07 -2.8418e-09 1.1929e-08
-3.22395e-07 6.53208e-08 -2.80833e-08
-3.01703e-07 7.92822e-08 -3.19985e-08
-3.19566e-07 7.52764e-08 -3.26686e-08
-2.99655e-07 8.82912e-08 -3.55458e-08
-1.48791e-07 -1.16136e-07 -2.3818e-09
-1.40634e-07 -1.12437e-07 2.00563e-09
-2.78703e-07 9.27804e-08 -3.26254e-08
-2.77669e-07 8.7205e-08 -3.1788e-08
-8.98888e-08 9.89554e-08 4.85118e-09
-7.55521e-08 -5.44955e-08 7.56407e-09
-7.64974e-08 -5.87912e-08 6.39404e-09
-6.2815e-08 9.81473e-08 8.36343e-09
-3.67497e-07 1.08788e-08 -2.37447e-09
-3.58138e-07 1.19488e-08 -3.75673e-09
-2.38219e-07 -8.7446e-08 2.34313e-08
-2.22895e-07 -9.36766e-08 2.2723e-08
2.77107e-08 1.92786e-07 1.90983e-08
4.8755e-08 1.81235e-07 2.38646e-08
-2.35876e-07 -8.82101e-08 1.90157e-08
-2.53042e-07 1.6186e-07 5.20341e-08
-2.76223e-07 1.45609e-07 4.56723e-08
3.18955e-07 -3.62598e-08 -3.06392e-08
-2.49143e-07 -6.03746e-08 -1.27519e-09
-2.34259e-07 -6.70726e-08 -6.04204e-09
-7.30403e-08 2.17842e-07 1.17387e-08
-5.64418e-08 2.11092e-07 1.40988e-09
-3.24431e-07 1.19096e-07 5.09141e-08
-3.34215e-07 1.07016e-07 4.34517e-08
4.29409e-07 1.2618e-07 -2.0173e-08
4.15978e-07 1.33356e-07 -3.22079e-08
-2.26637e-07 1.5634e-07 -4.14141e-08
-2.01596e-08 2.55836e-07 -1.55038e-08
2.54028e-07 -8.57386e-08 -6.29266e-08
2.50908e-07 -8.00792e-08 -5.94713e-08
-1.31011e-07 -1.55224e-07 1.45878e-08
-1.35007e-07 -1.52246e-07 1.64447e-08
-2.09738e-07 8.51825e-08 -1.78442e-08
-2.28178e-07 7.68243e-08 -1.81177e-08
1.55781e-07 8.70698e-09 -1.12492e-08
1.4594e-07 -4.77476e-09 -9.85681e-10
-3.62406e-07 8.91171e-08 3.57503e-08
-3.6147e-07 8.81763e-08 3.00153e-08
-3.20369e-07 1.29217e-07 3.29975e-08
-3.19564e-07 1.31917e-07 2.59336e-08
4.7359e-07 1.11841e-07 9.6433e-08
4.73237e-07 1.05274e-07 7.18549e-08
-3.04835e-07 1.41601e-07 3.45306e-08
3.53024e-07 1.61903e-07 5.63422e-09
-1.56496e-07 -2.75304e-08 2.2208e-09
3.6791e-07 1.56122e-07 -8.47647e-09
-1.29464e-07 -5.25652e-08 1.77931e-09
-1.26442e-07 -5.59703e-08 3.09006e-09
-2.83492e-07 -6.89351e-08 1.35738e-08
3.7711e-07 1.54019e-07 -3.19967e-09
3.61525e-07 1.54013e-07 3.88201e-10
-1.51689e-08 2.25552e-07 -4.63667e-09
3.46389e-07 1.578e-07 1.16594e-08
8.28166e-09 2.14201e-07 -1.10768e-08
4.04674e-08 2.27729e-07 -2.05304e-08
3.54389e-07 1.60256e-07 -9.59776e-08
3.55345e-07 1.58614e-07 -1.09132e-07
4.75892e-07 -2.58614e-08 -1.93248e-08
4.75371e-07 -2.68125e-08 -1.73953e-08
5.1669e-07 -3.02443e-08 -2.56272e-08
-1.22039e-07 2.0227e-07 -3.68673e-08
-1.58351e-07 1.83174e-07 -3.5386e-08
2.30385e-07 -6.93958e-08 4.6868e-08
2.07147e-07 -7.78775e-08 5.27168e-08
-1.5723e-07 1.88907e-07 -3.99048e-08
-3.0972e-07 1.25762e-07 5.28037e-08
-2.90966e-07 1.26793e-07 4.71073e-08
-3.09774e-07 1.21047e-07 4.80854e-08
-2.03663e-07 1.59283e-07 3.59479e-08
-1.52796e-07 2.02526e-07 2.92627e-08
-2.48767e-07 1.46493e-07 4.16976e-08
-2.2617e-07 1.6096e-07 4.24131e-08
-3.5761e-07 6.01785e-08 3.37666e-08
-9.98688e-08 -2.41342e-08 -2.00465e-09
-2.24071e-07 1.73271e-07 4.67718e-08
-2.30462e-07 1.61136e-07 4.82564e-08
6.99998e-08 2.04283e-07 7.41339e-09
7.18089e-08 2.09095e-07 3.96409e-09
-3.77679e-07 6.42716e-08 -1.7451e-08
-3.83747e-07 5.99924e-08 -9.78056e-09
3.9348e-07 1.31175e-07 5.38067e-08
3.89609e-07 1.28298e-07 5.20541e-08
3.96369e-07 1.2781e-07 5.95383e-08
-2.58474e-07 1.912e-07 1.83958e-08
-2.53609e-07 1.91684e-07 1.13748e-08
-2.66002e-07 1.77713e-07 1.62777e-08
-3.45892e-07 1.03211e-07 2.02712e-08
-3.00229e-07 1.41072e-07 4.17828e-08
3.31557e-07 1.48036e-07 8.94653e-08
3.33553e-07 1.57666e-07 1.02084e-07
-1.67493e-08 2.09042e-07 -6.38167e-09
6.92783e-08 2.03784e-07 -5.69254e-08
-1.41606e-08 2.22354e-07 -1.02965e-08
6.45465e-08 2.14747e-07 1.1165e-08
2.67547e-08 2.05985e-07 5.32177e-09
-6.92697e-08 2.15776e-07 -2.13396e-08
-4.51775e-08 2.07859e-07 -1.62782e-08
2.16841e-09 2.10295e-07 -1.59713e-08
2.43021e-09 2.1337e-07 -1.92686e-08
5.97409e-07 5.72699e-08 -5.04051e-08
6.04062e-07 5.96877e-08 -5.01756e-08
6.04827e-07 6.08702e-08 3.17026e-08
5.95694e-07 6.93988e-08 4.53182e-08
1.64468e-07 1.52525e-07 6.32365e-08
1.94162e-07 1.48321e-07 7.68183e-08
1.61122e-07 1.58432e-07 7.42774e-08
1.63109e-07 -8.38453e-08 2.70083e-08
1.87062e-07 1.47363e-07 -9.61969e-08
1.76298e-07 1.32418e-07 -8.12003e-08
1.42339e-07 -8.85331e-08 2.62341e-08
1.62162e-07 -8.87726e-08 2.55638e-08
4.07297e-07 1.36705e-08 -5.68727e-08
3.96573e-07 1.93548e-08 -5.97676e-08
3.49325e-07 1.26401e-08 -4.06924e-08
-2.96337e-07 1.32875e-07 4.53615e-08
-1.6116e-07 -1.16511e-07 1.95878e-09
-1.64781e-07 -1.17345e-07 -1.46671e-09
-3.49267e-07 8.52264e-09 1.37854e-08
-3.54375e-07 1.16836e-08 1.64654e-08
-3.16595e-07 1.2598e-07 4.88299e-08
-2.9546e-07 1.31887e-07 5.09118e-08
-2.22225e-07 -2.11675e-09 -9.29018e-10
-2.2026e-07 3.98059e-09 -2.08231e-09
1.08209e-07 2.96244e-08 1.73244e-08
-3.65783e-07 -1.96164e-08 1.05532e-08
-3.67772e-07 -1.74104e-08 1.14838e-08
-2.25559e-07 1.00621e-08 -3.64097e-09
5.40433e-07 8.1134e-08 -2.25866e-08
5.35965e-07 8.56044e-08 -1.7169e-08
-3.27517e-07 7.75945e-08 3.61194e-08
-3.2602e-07 7.61115e-08 3.70034e-08
-3.79263e-07 -5.83967e-09 1.05786e-08
-3.80815e-07 -2.86757e-09 9.66949e-09
-4.53228e-08 1.35611e-07 1.18865e-08
-4.26946e-08 1.35604e-07 1.59422e-08
-2.22868e-07 1.78368e-08 -4.74453e-09
-1.29938e-07 -7.77624e-08 7.70342e-10
-2.33112e-07 2.46364e-08 -7.53667e-09
-3.5831e-07 3.3635e-08 2.22405e-08
-3.61886e-07 2.46794e-08 1.94854e-08
5.11385e-07 1.00676e-07 -5.42091e-08
5.20829e-07 9.33918e-08 -4.16843e-08
-3.56829e-07 3.06279e-08 2.28233e-08
-1.67116e-07 -1.36794e-07 7.70748e-09
3.45795e-07 -5.66273e-08 -4.84647e-08
3.42896e-07 -5.44137e-08 -4.06617e-08
-1.48987e-07 -1.40985e-07 3.98224e-09
-1.49909e-07 -1.42328e-07 2.11645e-09
5.83605e-08 -9.9207e-08 2.40606e-08
5.03327e-08 -1.07965e-07 2.29931e-08
5.7962e-08 -1.07686e-07 2.7461e-08
-1.90234e-07 1.53409e-07 -3.41334e-08
-1.89131e-07 1.59376e-07 -3.78808e-08
-1.78754e-07 1.58084e-07 -3.13878e-08
-1.85339e-07 -8.91042e-08 -6.0002e-09
-1.71982e-07 1.70381e-07 -3.56163e-08
4.39776e-07 1.18328e-07 2.06248e-09
-3.35215e-07 1.13148e-07 2.76656e-08
-3.44425e-07 1.10075e-07 2.40615e-08
4.09908e-07 1.33717e-07 -2.83064e-08
3.91589e-07 1.41958e-07 -4.69158e-08
4.14824e-07 1.32355e-07 -3.92751e-08
4.08641e-07 1.32689e-07 -3.56343e-08
-3.03496e-07 1.09269e-07 -4.15058e-08
-3.2095e-07 1.02611e-07 -3.69059e-08
-3.20597e-07 9.77485e-08 -3.75621e-08
-2.51048e-07 -7.54038e-08 2.09724e-08
-2.4747e-07 -8.01381e-08 2.15644e-08
-2.44632e-07 -7.84722e-08 1.97701e-08
3.81841e-07 1.39542e-07 8.94743e-09
3.76426e-07 1.46545e-07 6.91837e-09
4.96829e-07 1.07609e-07 -5.02434e-08
4.90879e-07 1.06988e-07 -3.87785e-08
-3.20261e-07 1.01094e-07 -3.87969e-08
-3.20892e-07 9.31434e-08 -3.7135e-08
-3.41132e-07 1.06157e-07 2.92661e-08
-3.31172e-07 1.11841e-07 3.85506e-08
1.34834e-07 2.05116e-07 -5.1333e-08
-6.02987e-08 9.76325e-08 1.07166e-08
-3.43957e-07 1.08491e-07 3.72752e-08
-3.14079e-07 1.16588e-07 4.74197e-08
5.30232e-08 2.11793e-07 8.98416e-09
8.09098e-07 -3.52315e-08 2.78514e-08
8.2701e-07 -4.47781e-08 -1.56888e-08
-3.12005e-07 1.14799e-07 5.07643e-08
-7.8722e-08 2.09459e-07 1.08441e-08
5.39795e-08 2.08024e-07 1.73459e-08
3.00333e-07 -5.04789e-08 4.3455e-08
-7.82308e-08 -1.07257e-07 3.89163e-10
2.99818e-07 -5.07877e-08 4.48691e-08
8.57325e-08 2.14055e-07 2.15717e-08
5.25756e-08 1.98748e-07 1.43762e-08
4.44828e-07 1.12949e-07 5.77147e-08
4.49166e-07 1.12519e-07 6.26966e-08
4.29159e-07 1.20968e-07 6.23946e-08
4.46227e-07 1.0978e-07 5.11387e-08
3.43667e-07 1.47362e-07 1.68019e-08
3.53885e-07 1.49587e-07 2.19638e-08
4.53627e-07 1.15247e-07 2.81571e-08
4.67173e-07 1.08669e-07 1.67151e-08
4.50735e-07 1.16653e-07 2.06808e-08
3.49481e-07 1.50564e-07 1.36764e-08
-3.32567e-07 1.16053e-07 4.38119e-08
-3.74206e-07 7.29957e-08 5.79553e-09
-3.79133e-07 7.22399e-08 9.81041e-11
1.35391e-07 2.10935e-07 -4.67446e-08
-3.40951e-07 5.58253e-09 -2.90123e-09
-3.43563e-07 8.83374e-09 -3.14991e-09
3.62134e-07 -4.7378e-08 -2.1485e-08
3.80713e-07 -4.65361e-08 -2.52706e-08
3.62821e-07 -4.33747e-08 -1.56034e-08
-3.27174e-07 1.02683e-07 -3.51826e-08
-3.37159e-07 9.1771e-08 -3.12779e-08
-8.32838e-08 -8.44834e-08 4.69569e-09
-8.56826e-08 -9.14399e-08 3.72755e-09
-1.51984e-07 -8.121e-08 1.12247e-08
6.09804e-07 6.38609e-08 -8.43179e-08
-8.57146e-08 -7.77234e-08 6.46264e-09
6.04441e-07 6.18692e-08 -6.17008e-08
-3.25903e-07 1.0044e-07 -3.86624e-08
3.42298e-08 1.94423e-07 1.34365e-08
6.56652e-08 1.87813e-07 2.35707e-08
3.51914e-08 1.99295e-07 1.93257e-08
3.8336e-07 1.46626e-07 -6.60721e-09
1.54239e-07 1.78883e-07 5.24621e-08
3.9152e-07 1.45235e-07 -1.83911e-09
3.57614e-07 1.54444e-07 -4.60529e-08
1.20022e-07 -1.11876e-07 -4.46844e-08
-2.25109e-07 -8.28749e-08 -2.17792e-09
-2.23326e-07 -8.25596e-08 -2.08563e-09
-2.02371e-07 1.72554e-07 3.84409e-08
-1.86772e-07 1.88785e-07 3.85547e-08
-1.87101e-07 1.81519e-07 3.72546e-08
2.89286e-07 1.83321e-07 -1.04869e-07
-1.38544e-07 1.67026e-07 -2.40219e-08
-1.37974e-07 1.63957e-07 -2.77237e-08
2.83504e-07 1.67701e-07 -9.08944e-08
9.15095e-08 2.13018e-07 -4.47309e-08
6.31762e-08 2.06171e-07 -3.45579e-08
4.26584e-08 2.1879e-07 -3.13422e-08
4.90222e-07 1.063e-07 -2.52015e-08
4.95559e-07 1.05443e-07 -4.11356e-08
3.15269e-07 1.57673e-07 2.32215e-08
2.75837e-07 1.66167e-07 2.84677e-08
2.77662e-07 1.67621e-07 3.30775e-08
1.23347e-07 -1.1784e-07 -3.19462e-08
1.44024e-07 -1.09767e-07 -3.38521e-08
1.3889e-07 -1.18046e-07 -3.43623e-08
1.03929e-07 -9.7437e-08 3.47678e-08
1.05032e-07 -9.15348e-08 2.95436e-08
1.22496e-07 -9.05986e-08 3.2433e-08
-2.50205e-07 1.35222e-07 4.00042e-08
-2.47853e-07 1.42844e-07 4.38099e-08
-2.46052e-07 1.47646e-07 4.0762e-08
3.60409e-07 1.53767e-07 -5.76858e-08