# vtk DataFile Version 2.0
S, Created by Mohamad Ibrahim Cheikh
ASCII
DATASET UNSTRUCTURED_GRID
POINTS 6172 double
-15.1832 7.53894 -87.5154
-13.035 5.49301 87.7099
58.9286 -76.4654 38.3653
61.7783 -77.8151 34.9506
-224.512 38.9021 7.70814
-65.7852 84.9082 2.18237
-70.8189 -64.698 54.26
-68.7023 -67.4645 51.1338
-36.9213 30.6525 -81.471
-129.749 -13.2689 -74.2081
-133.601 -11.6044 -73.6482
-111.33 37.3657 -69.5008
-116.217 35.1691 -69.6674
-9.98936 -6.77632 87.6691
19.0274 -7.97097 87.385
15.885 -4.38467 87.7148
173.579 -15.9777 61.6435
172.805 -11.3338 62.9253
-62.3946 85.2413 -1.13397
-16.2869 2.91856 87.7668
-168.009 -29.9153 -58.2513
-164.909 -26.9088 -60.7489
-133.189 19.9112 -71.9425
-128.124 20.0868 -73.0119
-19.3956 -0.188849 -87.7377
-31.5449 -81.2751 -31.8831
-35.6534 -81.8629 -29.7798
-32.9405 -2.21335 87.2138
40.0289 56.0018 -66.4201
-153.941 56.7579 -40.264
-158.729 53.91 -41.8697
-161.606 -30.9937 59.8827
-156.017 -31.0148 61.6601
-203.677 27.4136 -43.7443
-47.1609 77.7744 37.7205
-44.2887 76.4016 40.8246
-46.9749 74.219 44.3327
-170.091 42.4244 49.0117
-171.736 38.1817 51.723
-245.957 -18.1197 3.04022
70.7781 -68.925 -48.7855
67.57 -71.2016 -45.993
-248.084 -13.9997 3.59477
-142.505 53.7913 -48.6232
-140.506 57.0357 -45.5402
-149.091 56.8372 -42.3335
-144.273 58.8991 -41.5516
-189.894 -49.787 29.162
-191.221 -46.5493 33.1728
-181.715 26.1972 54.9091
-178.074 29.9108 54.4706
-189.356 -3.44088 -57.8131
-194.202 -2.7921 -55.8465
-163.635 61.4216 -26.3273
-7.41456 -11.2773 87.2358
-225.444 -9.40827 -37.8543
-231.844 -33.9796 2.91891
-235.106 -31.2447 0.68107
-250.198 0.728324 8.91362
-250.184 -4.84983 7.56723
-206.177 -50.2738 -3.48482
-204.833 -50.3938 -8.22718
-240.308 5.42082 -25.3873
-227.974 -12.4754 -35.0057
-189.305 -35.566 45.7342
-72.9859 -24.6053 -80.5382
-77.0049 -26.4516 -79.4879
-193.413 -36.4458 42.8459
-226.509 -17.8214 -33.8373
-221.34 -19.7047 -36.8465
-213.788 46.3489 0.196946
-216.484 44.6746 3.2314
162.826 -23.269 62.9019
-235.712 30.6063 -2.23215
-104.761 74.313 29.6297
-109.224 73.9356 28.582
-29.5157 24.9846 83.7443
4.16165 18.617 -85.9959
-28.1321 29.3381 82.3795
-228.049 6.80587 36.4762
-230.784 3.02949 34.8429
156.907 2.81011 -68.716
154.546 -1.92124 -69.3982
-224.222 0.542136 39.8556
-221.099 -3.23212 41.8161
150.466 -12.1451 -69.4599
18.3363 -16.9267 86.1181
23.2819 -16.0886 86.1324
146.557 -8.65962 -70.9882
161.93 -67.0644 6.00592
165.648 -66.1728 2.3986
-153.712 64.299 26.7758
-226.988 11.8067 36.0077
-202.805 -40.7188 32.4105
-200.488 -39.006 36.0747
25.0953 87.1868 8.0846
-233.555 18.1633 -27.1249
21.9823 86.7626 12.5332
-172.754 -63.0298 10.8372
-233.267 25.5408 20.731
174.161 27.2045 -57.3617
-230.315 29.384 19.6534
-244.629 -20.4001 -1.0973
-241.645 -24.3926 0.0914492
-23.2449 -7.65341 -87.2884
-239.409 18.0358 -20.0342
-181.192 -59.6411 12.9409
-245.614 15.454 -10.9277
-242.841 19.2455 -12.3953
-212.355 9.57088 -46.1676
-214.936 5.16517 -45.4017
-232.143 33.8414 0.97078
-228.568 36.7101 -0.416028
-178.007 -61.5009 9.06972
190.932 -0.739887 57.2733
186.915 -3.47695 58.7753
150.17 -33.955 -61.8879
152.402 -29.8712 -63.3097
10.619 24.5911 -84.4125
158.737 -28.0277 -62.2375
-208.774 -8.31925 -48.3575
211.096 -37.9763 -29.0882
214.423 -34.2876 -30.6484
-236.896 3.2055 29.3759
-105.723 78.9732 11.7811
-113.012 -60.8914 -49.7252
-108.14 -63.8166 -47.3256
132.578 20.1427 72.0161
135.851 22.3545 70.6029
-100.449 79.6807 12.6352
-234.882 28.6646 12.9582
-237.855 24.8575 14.1281
-227.016 24.4563 28.9188
-0.529748 87.7713 -6.33751
4.20189 87.8568 -4.79838
-229.268 20.4273 29.8552
-35.0999 23.1377 84.0108
-241.931 -22.2426 9.12681
-244.441 -19.0266 8.16001
152.287 -1.90686 70.0074
148.218 -4.38708 70.9585
-36.4177 68.5485 -53.6911
-41.6531 68.0796 -53.8215
32.3593 87.2059 -3.3053
37.3951 86.9969 -2.07926
193.461 43.5192 -35.6069
195.326 39.9294 -38.4533
39.6037 -86.6592 6.4926
44.151 -86.3386 7.14021
173.953 57.8886 -26.2338
175.219 59.2036 -21.9117
194.895 20.1702 51.8339
196.074 15.681 52.8326
132.425 -71.7261 21.2695
-203.643 -14.8593 -49.4567
-95.1457 80.7738 10.5484
-96.0918 81.1328 5.56722
-208.112 -14.2144 -47.3225
148.45 -26.0623 -66.081
-22.3249 -57.729 -65.9571
-19.9458 -60.9894 -63.0522
-8.43023 -6.50588 -87.7096
-167.635 36.6701 54.3951
-100.119 -13.9323 79.5152
-103.088 -10.9702 79.5146
-101.947 -73.734 -32.1693
193.484 -41.3228 -38.12
189.556 -40.8682 -40.9231
25.0719 83.9846 -24.7714
21.36 83.1304 -27.8832
-105.94 -71.6289 -35.2027
-221.646 31.1976 27.4972
-218.399 33.9789 27.3814
-217.159 -37.2746 24.1048
-215.643 -34.7242 29.0688
-218.459 -30.3825 31.2725
1.69191 -74.6714 46.5599
5.32139 -76.5188 43.4213
63.5413 -74.2113 41.7417
110.941 6.68755 -78.6919
4.08948 -72.2189 50.2631
158.062 31.8156 -60.6053
160.363 28.1075 -61.6888
-125.322 74.4871 16.5178
-125.629 72.0283 24.9729
-129.332 72.6637 20.3993
-30.8059 81.2153 -32.123
-39.4843 81.2599 -30.8213
94.7596 -73.7668 34.6859
20.4989 19.7028 -85.4655
-36.0797 80.1849 -33.9853
-60.6317 79.502 31.1985
-66.3782 79.3202 30.2138
-43.5053 86.3664 -7.28856
210.697 1.33287 -48.0329
209.404 -3.26685 -48.6288
-63.8356 81.0419 26.0252
-77.943 -75.1668 36.7447
151.86 -64.2601 28.1287
156.103 -62.4441 29.3486
38.5046 -25.617 -83.1039
-74.656 -74.0853 39.6611
-47.1062 -34.342 -79.3281
-42.2431 -32.0221 -80.6233
11.5667 73.3157 -48.5018
14.4779 70.311 -52.6754
-75.3123 -70.9917 44.8303
-164.579 -42.7617 -50.9829
-159.647 -41.7993 -53.6322
-158.425 -37.8025 -56.9398
75.7007 -19.6556 81.5847
81.3667 -47.7068 68.2459
80.3002 -16.6235 81.7203
3.01856 74.1824 -47.3271
-2.018 71.9135 -50.7144
3.12817 79.0893 -38.5705
6.81758 77.0909 -42.3709
-102.278 7.35528 80.0573
-105.542 4.62462 79.7423
83.3922 -51.1094 65.4249
-2.2162 -29.4572 82.9197
88.8328 -51.914 63.8969
131.926 14.929 73.4186
136.384 13.5043 72.6936
-75.5683 -67.2591 -50.2102
-71.6007 -65.2075 -53.5193
-147.773 -18.0264 -68.8881
-152.828 -20.8208 -66.7156
-121.603 35.9528 68.1248
-119.917 40.2214 66.0732
98.3303 -75.2107 30.0598
103.198 -74.0651 30.8951
240.789 21.7517 -13.13
242.189 18.1433 -15.2836
-35.2758 79.6933 35.2225
62.2764 -70.6409 -47.7393
58.2307 -66.2145 -54.2633
62.8066 -67.9121 -51.4684
-96.6524 -65.297 48.3383
-95.9474 -62.2821 52.3245
-163.016 39.8677 53.8618
-139.05 -73.21 -4.13556
-137.063 -73.7832 0.116636
44.9688 -82.1658 27.2984
39.134 -80.2641 33.3792
39.8834 -81.8639 29.1128
-81.6965 -65.4653 -51.3922
78.2972 -72.9107 -40.957
-9.18677 -81.3157 -33.4876
-14.1749 -81.5224 -32.7642
73.9546 -74.4978 -39.0445
73.9043 -77.0675 -33.7031
47.9334 85.3185 13.5447
43.1677 85.5051 14.3086
40.8196 84.8913 18.2612
160.733 -41.6335 53.3635
160.45 -38.0909 56.0464
157.155 -44.5699 52.2853
-68.7118 66.3822 -52.5297
-186.627 7.10132 58.5607
112.189 -16.7667 -76.954
113.557 -11.8188 -77.6244
-12.7659 9.46674 87.3752
202.11 -34.1873 39.6751
-118.369 -74.3804 22.2745
210.45 -30.1969 37.5473
205.958 -30.5513 40.2157
-236.693 5.62465 -29.2125
-169.75 -64.6108 6.4489
238.101 -19.3137 -20.7396
239.731 -15.0735 -21.9226
-201.061 25.1987 46.4729
-235.515 1.20065 -30.8487
53.8769 -76.5029 39.1908
-198.296 35.6154 -40.7603
-193.152 38.2044 -41.4343
48.6577 62.3513 59.7198
53.6318 63.5625 57.8934
-1.22497 -82.0657 31.7652
4.49342 -82.9749 29.2695
-71.6424 -61.26 -57.9898
-76.3549 -54.999 -63.2877
-76.7196 -59.0384 -59.4798
-80.4139 -53.199 -64.2042
197.343 -34.9888 41.8546
195.227 -32.1551 45.208
-77.2867 -47.1274 -69.2221
-71.8117 -47.7466 -69.519
-42.0255 3.17781 -86.7045
51.6043 1.46124 86.1152
57.2042 -1.6444 85.6777
-40.8933 7.60601 -86.4952
-25.8851 -79.195 -37.2842
-25.8638 -76.7842 -42.0273
142.236 -61.5132 -38.5126
150.668 -57.366 -40.9131
-105.037 14.6874 -78.5973
-101.919 18.4772 -78.2998
147.72 -60.2352 -38.002
-164.848 -42.6097 51.0037
-162.215 -47.3936 47.7099
34.0607 70.9161 -50.7235
106.557 -59.3679 53.1913
109.881 -56.0231 55.9215
-174.339 -5.38107 63.1972
-169.612 -0.971131 64.9687
-139.507 -59.1261 43.1897
-135.513 -62.2603 40.2413
-147.048 70.3519 12.136
-152.205 68.5341 14.5196
-172.714 -38.9642 -50.7315
-231.628 1.77632 -34.2387
89.4678 64.736 -50.7272
93.7337 66.3937 -47.5416
230.996 -29.2776 -18.8167
227.392 -30.6485 -21.7755
-52.3702 -28.4052 -81.2488
-51.4289 -32.7985 -79.652
17.9236 56.9163 66.8221
21.6144 54.2122 68.9045
-130.88 -69.7979 27.8401
-135.439 -69.9501 24.5999
-183.781 -55.9851 21.7831
-188.688 -54.6201 20.0437
-60.6487 75.7373 -39.4655
-67.256 74.4729 -40.5461
-191.904 -51.304 24.5591
-188.32 56.7128 -13.6274
32.0438 -18.7535 85.2443
-185.336 59.3871 -3.42579
53.912 -15.7077 84.5069
58.5952 -13.8477 84.4505
134.555 -73.9748 -7.42435
-181.536 60.482 -7.15451
-183.757 58.8527 -12.0959
-170.321 5.19376 64.54
-183.928 56.756 -19.5191
-166.831 9.18888 65.2074
-168.314 14.7577 63.7008
-98.541 63.6835 49.9957
-92.7803 66.0481 48.2467
38.7409 81.5045 -30.2863
42.1392 82.3928 -27.1667
45.1703 83.5159 -22.7879
-181.627 -18.5899 -57.9623
-179.851 -24.7651 -56.3071
76.6652 63.3525 54.8714
77.7361 60.1707 58.1692
-174.431 -24.7967 -58.344
-124.96 -54.3863 53.6131
-122.599 -50.5113 57.9
-129.488 -55.3038 51.3096
-114.598 -29.3763 72.6167
-150.145 -18.3615 68.1679
-115.096 -38.1743 68.3
-116.806 -33.4174 70.4051
-70.5009 -69.923 47.3946
17.1477 -2.47775 -87.7602
-148.112 -34.8757 61.9831
-143.957 -38.355 61.1204
-183.692 14.8064 -58.255
-179.098 13.7847 -60.2237
-110.115 -76.5801 -19.8739
-106.897 -77.9231 -16.5217
-109.284 65.47 -44.671
-114.178 66.3626 -41.7602
-105.051 67.2512 -43.2456
-229.514 -33.746 12.488
-232.159 -32.7167 8.65461
-225.689 -37.1629 11.264
-165.186 -64.8771 13.9385
-184.191 -51.6558 30.3656
-72.1575 61.5639 -57.5884
-67.0208 62.1463 -57.7227
-176.803 1.49436 -62.5673
-87.7367 30.6351 76.5706
-171.646 1.17955 -64.308
-150.073 14.4843 -69.1146
-149.94 9.35371 -70.0287
-172.587 -7.60415 -63.5564
-170.218 -4.35023 -64.6357
-123.882 10.9933 75.7908
-128.799 12.0995 74.6095
-43.5287 85.9168 11.4163
-41.4766 85.1829 16.6509
-45.67 84.5311 -18.5239
-51.2766 83.8712 -19.6904
-51.7033 43.1482 -74.5315
-44.8977 49.7761 -70.8487
[...]
POINT_DATA 6172
VECTORS F double
-1.4427e-08 6.11342e-08 5.57278e-09
-3.43129e-08 3.65006e-08 -2.91023e-09
-1.3415e-07 -1.57292e-08 -6.12237e-09
-1.34376e-07 -1.62595e-08 -7.12077e-09
1.17197e-07 8.3229e-08 -2.1233e-09
2.42524e-07 2.30126e-08 -2.93316e-10
-1.32986e-07 3.1466e-08 1.62689e-08
-1.38834e-07 2.78344e-08 1.38865e-08
7.2519e-08 9.01511e-08 2.98946e-08
-1.59353e-08 9.12513e-08 -1.29053e-08
-1.68508e-08 9.18201e-08 -1.07253e-08
9.5184e-08 8.11903e-08 2.49833e-08
9.48164e-08 7.93883e-08 2.07115e-08
-5.44869e-08 2.73888e-08 1.35692e-09
-5.54636e-08 -2.10993e-09 1.28612e-09
-5.14407e-08 2.51834e-09 1.26645e-09
-3.87223e-08 -5.24876e-08 -2.55056e-10
-3.15518e-08 -5.12042e-08 1.38563e-09
2.48006e-07 2.22697e-08 3.33709e-09
-3.6122e-08 3.77766e-08 -2.07689e-09
-5.22944e-08 8.45504e-08 -2.49555e-08
-4.87122e-08 8.63132e-08 -2.20431e-08
5.8738e-08 8.6878e-08 1.07314e-08
6.04853e-08 9.07277e-08 1.19656e-08
-2.71487e-08 6.06041e-08 6.04318e-10
-1.52573e-07 1.49582e-08 -1.96495e-08
-1.53334e-07 1.50887e-08 -1.90026e-08
-4.13607e-08 4.99485e-08 -6.44918e-10
9.69056e-08 9.01085e-09 1.47475e-08
1.43631e-07 5.73118e-08 1.3557e-08
1.39787e-07 6.06502e-08 1.32105e-08
-5.93454e-08 7.48236e-08 1.91188e-08
-5.83858e-08 7.75745e-08 2.09328e-08
8.11245e-08 8.52521e-08 7.18088e-09
2.20236e-07 2.92691e-08 -2.6637e-08
2.24033e-07 3.07768e-08 -2.78417e-08
2.07658e-07 3.61245e-08 -3.35386e-08
1.05672e-07 6.7462e-08 -1.34963e-08
9.21983e-08 7.02809e-08 -1.44018e-08
-6.01711e-08 9.99194e-08 -4.61985e-10
-1.18659e-07 -1.23415e-08 -3.6402e-09
-1.2252e-07 -1.07536e-08 -5.38981e-09
-4.95936e-08 1.07544e-07 -1.99383e-10
1.36717e-07 6.33656e-08 2.10438e-08
1.4878e-07 5.97647e-08 1.86509e-08
1.47326e-07 6.08899e-08 1.82271e-08
1.49741e-07 5.96962e-08 2.09645e-08
-1.03168e-07 5.65281e-08 1.42595e-08
-9.36277e-08 5.95992e-08 1.75554e-08
6.70625e-08 8.09173e-08 -1.14341e-08
7.29902e-08 7.68781e-08 -1.30011e-08
8.53988e-09 9.59497e-08 -9.13524e-09
6.77072e-09 9.19664e-08 -7.48068e-09
1.55607e-07 5.50032e-08 9.91192e-09
-6.26807e-08 2.17749e-08 2.1627e-09
-1.39774e-08 9.70207e-08 -1.39223e-08
-9.07264e-08 7.58018e-08 1.58326e-10
-8.73349e-08 8.03973e-08 -2.75072e-09
2.96901e-09 1.19485e-07 4.46333e-10
-1.86405e-08 1.17539e-07 -1.16036e-10
-1.08873e-07 5.52426e-08 -8.33627e-09
-1.09829e-07 5.64116e-08 -1.07611e-08
2.34958e-08 1.08904e-07 -3.97676e-09
-2.37736e-08 9.87949e-08 -1.62537e-08
-7.1308e-08 7.16725e-08 1.9601e-08
-5.94972e-08 9.19736e-08 -2.14978e-08
-5.95252e-08 8.80996e-08 -2.22574e-08
-7.16565e-08 6.78305e-08 1.80962e-08
-3.93307e-08 9.23809e-08 -1.64218e-08
-3.9244e-08 9.07377e-08 -1.96628e-08
1.325e-07 7.4831e-08 -1.3247e-09
1.28247e-07 7.63081e-08 -3.07177e-09
-5.06096e-08 -4.77043e-08 -1.60781e-09
9.99594e-08 9.43297e-08 1.0715e-09
1.95476e-07 3.77787e-08 -1.01348e-08
1.93093e-07 3.76659e-08 -7.09286e-09
1.44879e-08 6.39219e-08 -1.84455e-08
1.34518e-10 4.41933e-08 9.56808e-09
2.80509e-08 6.03117e-08 -2.03062e-08
2.21999e-08 9.99156e-08 -1.6496e-09
1.21949e-08 1.03131e-07 9.22708e-10
-8.59493e-09 -4.38677e-08 -4.19682e-09
-1.82463e-08 -4.01953e-08 -3.86207e-09
3.2309e-09 9.90458e-08 8.78294e-10
-3.10686e-09 9.47754e-08 5.31459e-09
-3.017e-08 -4.04792e-08 -9.23698e-10
-6.85757e-08 -2.33939e-09 1.32786e-09
-6.72089e-08 -5.06522e-09 1.27807e-09
-2.78726e-08 -3.74601e-08 -2.47554e-09
-1.07911e-07 -3.22293e-08 -3.67576e-09
-1.05745e-07 -3.25012e-08 -2.55714e-09
1.64628e-07 4.9398e-08 -2.91718e-09
4.00967e-08 9.80713e-08 -1.21057e-09
-8.73114e-08 6.63083e-08 1.64175e-08
-8.35583e-08 6.72122e-08 1.58192e-08
3.83528e-07 -1.28214e-08 -7.55656e-09
6.27017e-08 1.0009e-07 9.23247e-10
3.46752e-07 -7.72128e-09 -2.10952e-08
-1.21172e-07 4.13061e-08 3.75474e-09
8.1735e-08 9.666e-08 -6.48692e-09
3.28276e-08 -4.66462e-08 -9.91996e-09
9.20802e-08 9.10612e-08 -4.03408e-09
-6.6242e-08 9.74701e-08 -4.05856e-09
-7.4175e-08 8.99548e-08 -2.36114e-09
-3.86591e-08 5.99061e-08 -3.99213e-09
6.33751e-08 1.03503e-07 4.5629e-10
-1.17671e-07 4.51674e-08 6.45157e-09
5.77363e-08 1.11914e-07 -6.11626e-10
6.84281e-08 1.0675e-07 1.61124e-09
3.77972e-08 9.0648e-08 -2.49321e-09
2.40849e-08 9.69605e-08 -2.92895e-09
1.08033e-07 9.08005e-08 -2.43225e-09
1.1364e-07 8.66268e-08 -2.16192e-11
-1.21652e-07 4.3331e-08 1.5078e-09
-1.64392e-08 -5.52169e-08 5.99638e-09
-1.84928e-08 -5.48758e-08 3.95397e-09
-6.12135e-08 -3.41248e-08 5.37557e-10
-5.36498e-08 -3.69098e-08 1.60334e-09
1.29667e-08 3.76122e-08 1.11569e-08
-5.26299e-08 -3.61753e-08 -1.43331e-10
-6.46738e-09 9.4547e-08 -1.28473e-08
-6.67493e-08 -4.70011e-08 2.05625e-09
-6.14831e-08 -4.9993e-08 3.26527e-09
1.18526e-08 1.06341e-07 9.90178e-11
2.10683e-07 3.47779e-08 -1.65528e-09
-1.14018e-07 5.71984e-08 -3.83173e-08
-1.17989e-07 5.05531e-08 -3.5161e-08
8.17695e-09 -5.35868e-08 1.31451e-08
1.03936e-08 -5.42413e-08 1.47257e-08
2.13261e-07 3.37508e-08 -5.2706e-09
9.31674e-08 9.49096e-08 -3.19004e-09
8.32469e-08 1.00603e-07 -5.41557e-09
7.54149e-08 9.17844e-08 -5.1399e-09
3.06403e-07 1.21475e-09 1.37172e-08
3.18578e-07 -1.5284e-09 6.24383e-09
6.35116e-08 9.67671e-08 -6.49623e-09
1.32189e-08 6.48084e-08 -1.71729e-08
-6.82891e-08 9.22452e-08 3.18469e-09
-6.2378e-08 9.90241e-08 2.12013e-09
-2.31882e-08 -5.31624e-08 4.72759e-09
-2.47866e-08 -5.26887e-08 3.08126e-09
1.88822e-07 4.64702e-08 4.36492e-08
1.8748e-07 4.74214e-08 4.22202e-08
3.43059e-07 -1.5488e-08 -1.39639e-10
-1.61017e-07 1.05322e-08 6.60421e-08
5.89345e-08 -3.9922e-08 -9.59049e-09
5.29817e-08 -4.27349e-08 -1.14266e-08
-1.48365e-07 -8.83938e-09 -7.18277e-09
-1.47456e-07 -9.82749e-09 -7.20226e-09
7.7284e-08 -3.15957e-08 -6.97978e-09
7.91799e-08 -3.11699e-08 -6.69947e-09
1.87009e-08 -5.18297e-08 1.156e-08
1.06039e-08 -5.48066e-08 1.1449e-08
-1.16236e-07 -2.83388e-08 -6.96382e-09
-2.10125e-08 9.23057e-08 -1.71407e-08
2.17389e-07 3.15212e-08 -1.30594e-09
2.17955e-07 3.17897e-08 -2.70074e-09
-2.23023e-08 9.07126e-08 -1.52399e-08
-5.08814e-08 -3.43323e-08 -4.53845e-10
-1.20009e-07 3.03614e-08 -2.16007e-08
-1.24918e-07 2.64251e-08 -2.07226e-08
-4.24777e-08 4.67332e-08 -2.96658e-09
9.25405e-08 7.0668e-08 -1.27242e-08
-3.75105e-08 8.44827e-08 9.02023e-09
-3.34579e-08 9.01818e-08 7.13127e-09
-1.38754e-07 3.60983e-08 -2.89044e-08
-6.90675e-08 -4.1694e-08 2.27741e-09
-6.9814e-08 -4.17834e-08 2.13592e-09
3.36097e-07 6.01072e-09 6.20499e-08
3.15967e-07 1.31791e-08 6.89448e-08
-1.34354e-07 4.08113e-08 -3.35392e-08
9.17252e-08 8.60095e-08 -7.06288e-09
9.7287e-08 8.24178e-08 -7.27266e-09
-8.65853e-08 6.94712e-08 1.19266e-08
-7.96817e-08 7.04784e-08 1.18208e-08
-7.1035e-08 7.71827e-08 1.42329e-08
-1.43392e-07 -2.55094e-10 2.28878e-10
-1.44378e-07 -1.96107e-09 -1.28954e-09
-1.30915e-07 -1.80704e-08 -7.72819e-09
-1.08312e-08 -3.60197e-08 -4.93066e-09
-1.40135e-07 -9.58047e-10 1.93887e-11
3.49277e-08 -4.21707e-08 -1.09855e-08
3.01315e-08 -4.58118e-08 -1.12837e-08
1.94694e-07 4.0449e-08 -1.55595e-09
1.86397e-07 4.18423e-08 -5.8817e-09
1.85096e-07 4.22815e-08 -6.93583e-09
2.34432e-07 2.5337e-08 3.65338e-08
2.30181e-07 2.62374e-08 3.30727e-08
-1.24732e-07 -2.3022e-08 -7.24144e-09
1.6269e-09 2.54709e-08 5.91968e-09
2.32676e-07 2.68986e-08 3.32226e-08
2.21321e-07 2.93885e-08 -2.22298e-08
2.18384e-07 2.84631e-08 -1.59845e-08
2.64721e-07 1.68352e-08 6.03685e-09
-2.81406e-09 -5.2406e-08 -2.96559e-09
-1.17268e-08 -5.05385e-08 -2.78742e-09
2.30998e-07 2.60546e-08 -1.1764e-08
-1.46375e-07 2.28978e-08 8.8272e-09
-1.04754e-07 -3.29282e-08 -5.98521e-09
-1.03198e-07 -3.44992e-08 -6.20024e-09
-7.07546e-08 -3.35984e-10 -3.91009e-09
-1.46751e-07 2.3975e-08 1.09647e-08
-8.12939e-08 6.22841e-08 -2.10534e-08
-7.98635e-08 6.27795e-08 -1.98118e-08
2.03231e-07 4.40902e-08 7.25804e-08
1.74905e-07 3.78521e-08 5.641e-08
-1.40789e-07 2.5795e-08 1.18912e-08
-7.70872e-08 7.03023e-08 -2.84993e-08
-7.69399e-08 7.43414e-08 -2.98996e-08
-6.69278e-08 7.5683e-08 -2.74477e-08
-5.96492e-08 -3.2876e-08 -1.14438e-09
-9.64491e-08 -2.72319e-08 -4.95771e-09
-5.60118e-08 -3.62919e-08 -6.44066e-10
2.31746e-07 4.87743e-08 7.82614e-08
2.35748e-07 4.83406e-08 6.73995e-08
2.44159e-07 2.40084e-08 5.166e-08
2.65438e-07 3.33629e-08 6.59322e-08
1.00826e-08 9.01523e-08 -6.70563e-09
6.29304e-09 9.08056e-08 -4.24643e-09
-1.00335e-07 -2.88768e-08 -6.90074e-09
-8.89794e-08 1.24558e-08 4.13379e-09
-9.91836e-08 -2.85082e-08 -6.27992e-09
-2.58714e-09 -5.33738e-08 1.14223e-08
-1.47086e-09 -5.18062e-08 9.96196e-09
-1.29484e-07 4.23462e-08 -3.28659e-08
-1.29691e-07 4.49207e-08 -3.34887e-08
-2.85121e-08 9.164e-08 -1.6492e-08
-2.89933e-08 8.69181e-08 -1.89944e-08
8.58961e-08 7.35121e-08 -2.00243e-08
1.02319e-07 6.90118e-08 -1.92748e-08
-1.24851e-07 -2.32319e-08 -8.12564e-09
-1.23349e-07 -2.45812e-08 -8.48512e-09
4.247e-08 -5.8956e-08 -2.31438e-09
3.58023e-08 -6.16374e-08 -3.71188e-09
2.38828e-07 2.27181e-08 -2.21175e-08
-1.23278e-07 -9.95646e-09 -4.95619e-09
-1.19138e-07 -8.6154e-09 -5.13975e-09
-1.18689e-07 -9.66794e-09 -4.97554e-09
-1.32019e-07 3.91156e-08 2.05206e-08
-1.26572e-07 4.07825e-08 2.01283e-08
9.59675e-08 6.84896e-08 -1.51348e-08
-1.35039e-07 3.20289e-08 -1.11091e-08
-1.39325e-07 3.16759e-08 -7.06204e-09
-1.43093e-07 -1.15593e-08 -5.93324e-09
-1.41965e-07 -1.05343e-08 -4.95345e-09
-1.4407e-07 -1.07352e-08 -6.0228e-09
-1.28732e-07 4.72245e-08 -3.51022e-08
-1.23303e-07 -1.40921e-08 -3.77266e-09
-1.4968e-07 8.74487e-09 -1.62075e-08
-1.50956e-07 9.7548e-09 -1.62757e-08
-1.25412e-07 -1.26143e-08 -5.01427e-09
-1.29205e-07 -1.31916e-08 -4.52246e-09
1.57226e-07 -3.31197e-08 1.41373e-07
2.25389e-07 -7.9535e-09 -3.24328e-08
3.19272e-07 -1.06779e-08 -3.75967e-08
-7.41805e-08 -4.4127e-08 -7.07207e-09
-6.79046e-08 -4.35824e-08 -5.81973e-09
-7.82561e-08 -4.1144e-08 -6.27496e-09
1.68985e-07 5.22508e-08 3.89676e-08
2.40061e-08 8.57449e-08 -1.03115e-09
-4.43531e-08 -3.1391e-08 -1.07711e-09
-3.44743e-08 -3.33432e-08 -1.09777e-09
-2.58539e-08 3.64866e-08 -4.41565e-09
-6.31621e-08 -4.91389e-08 -2.94915e-09
-1.4313e-07 2.97658e-08 6.27416e-09
-5.7635e-08 -5.18273e-08 -2.13125e-09
-5.88587e-08 -5.23823e-08 -2.88913e-09
2.55698e-08 1.08373e-07 -4.49957e-09
-1.25125e-07 4.02276e-08 -1.97944e-10
-4.06068e-08 -6.32898e-08 1.86201e-09
-3.17536e-08 -6.56213e-08 2.60639e-09
6.98215e-08 8.00815e-08 -6.43851e-09
1.2349e-08 1.03857e-07 -7.50119e-09
-1.35245e-07 -1.50634e-08 -6.64171e-09
1.01792e-07 7.76096e-08 7.18403e-09
1.0487e-07 7.66724e-08 1.08428e-08
8.72707e-08 -2.26259e-08 1.49175e-08
9.01974e-08 -2.62931e-08 1.86378e-08
-1.52145e-07 -7.5724e-10 -2.67457e-09
-1.51663e-07 -2.28287e-09 -3.62105e-09
-1.21778e-07 4.80671e-08 -3.23583e-08
-1.10643e-07 5.73556e-08 -3.35009e-08
-1.19437e-07 5.45048e-08 -3.52394e-08
-1.08619e-07 6.34927e-08 -3.59537e-08
-6.46146e-08 -5.00073e-08 -4.5048e-09
-6.144e-08 -4.90773e-08 -2.42333e-09
-9.94408e-08 6.84383e-08 -3.30008e-08
-9.89173e-08 6.47388e-08 -3.19537e-08
-1.09676e-08 8.53676e-08 3.77959e-09
-3.72859e-08 -2.59173e-08 3.17535e-09
-3.85086e-08 -2.93918e-08 2.58371e-09
3.17788e-09 8.28611e-08 7.10246e-09
-1.49481e-07 1.52782e-08 -1.97464e-08
-1.45667e-07 1.68748e-08 -1.98553e-08
-9.83768e-08 -2.84116e-08 8.97084e-10
-9.20876e-08 -3.07602e-08 1.6109e-09
4.22138e-08 9.44344e-08 1.074e-08
5.171e-08 8.81319e-08 1.25568e-08
-9.72281e-08 -2.89087e-08 -4.49674e-10
-7.9589e-08 6.60881e-08 2.37179e-08
-9.14081e-08 5.92575e-08 2.08144e-08
1.72173e-07 1.65585e-08 3.73044e-08
-1.05207e-07 -2.95707e-08 -7.20093e-09
-9.95187e-08 -3.26698e-08 -8.78832e-09
-4.77294e-09 8.4983e-08 5.62415e-09
1.85751e-09 8.31256e-08 1.83634e-09
-1.14358e-07 5.03753e-08 2.37391e-08
-1.20215e-07 4.4439e-08 1.91916e-08
1.79702e-07 4.58331e-08 8.86663e-10
1.74679e-07 4.80266e-08 -2.50615e-09
-6.99718e-08 7.32802e-08 -2.71177e-08
1.48767e-08 1.05237e-07 -6.8624e-09
1.05035e-07 -2.80992e-08 -1.31787e-08
1.04725e-07 -2.6959e-08 -1.23702e-08
-5.65229e-08 -5.67196e-08 3.29949e-09
-5.80216e-08 -5.53937e-08 3.78506e-09
-7.03348e-08 7.1692e-08 -1.95137e-08
-8.05663e-08 6.76092e-08 -2.14709e-08
7.652e-08 2.3182e-08 -2.22583e-08
6.40366e-08 1.24263e-08 -1.22359e-08
-1.33595e-07 3.59202e-08 1.31635e-08
-1.32912e-07 3.47903e-08 9.33597e-09
-1.12196e-07 4.99768e-08 1.2556e-08
-1.12269e-07 5.07663e-08 8.94604e-09
2.06816e-07 3.88583e-08 3.56607e-08
2.04737e-07 3.84366e-08 2.90198e-08
-1.05287e-07 5.46274e-08 1.33926e-08
1.48875e-07 6.20495e-08 6.34839e-09
-6.91019e-08 -1.1768e-08 5.91333e-10
1.54585e-07 5.91888e-08 2.15259e-09
-5.98176e-08 -2.58987e-08 -1.41791e-10
-5.81407e-08 -2.78387e-08 3.74056e-10
-1.16484e-07 -2.54915e-08 -4.47057e-09
1.58114e-07 5.85556e-08 3.82789e-09
1.5217e-07 5.91799e-08 4.91567e-09
1.95375e-08 8.67673e-08 -6.69921e-10
1.46918e-07 6.11453e-08 8.30016e-09
2.84478e-08 8.2485e-08 -2.71271e-09
4.10775e-08 8.6118e-08 -6.66275e-09
1.6397e-07 5.18678e-08 -2.65008e-08
1.66688e-07 5.0198e-08 -2.94743e-08
2.77e-07 1.86186e-09 4.83837e-08
2.74579e-07 -1.18226e-09 4.85516e-08
3.17451e-07 -1.45841e-08 2.37691e-08
-2.46949e-08 9.19352e-08 -2.00119e-08
-4.1073e-08 8.51658e-08 -2.13961e-08
9.48611e-08 -4.01042e-08 3.00761e-08
8.2853e-08 -4.34732e-08 3.14131e-08
-3.96883e-08 8.76632e-08 -2.27306e-08
-1.09171e-07 5.62353e-08 2.58935e-08
-1.00767e-07 5.67072e-08 2.33481e-08
-1.09212e-07 5.26929e-08 2.30511e-08
-5.96264e-08 7.41071e-08 1.84588e-08
-3.60104e-08 8.64576e-08 1.35774e-08
-8.19817e-08 6.86721e-08 2.14684e-08
-6.95287e-08 7.49508e-08 2.14525e-08
-1.40523e-07 2.66483e-08 1.37234e-08
-3.68569e-08 2.31439e-08 -1.53516e-09
-6.71914e-08 7.3581e-08 2.17444e-08
-7.00219e-08 6.81783e-08 2.25926e-08
4.88909e-08 8.59401e-08 2.96854e-09
5.03048e-08 8.83923e-08 1.91652e-09
-1.42393e-07 3.1486e-08 -2.47324e-08
-1.46787e-07 2.88645e-08 -1.98614e-08
1.71172e-07 5.03806e-08 2.2569e-08
1.69715e-07 4.99835e-08 2.26197e-08
1.73598e-07 4.89539e-08 2.44995e-08
-8.78372e-08 7.53252e-08 5.90536e-09
-8.67577e-08 7.60585e-08 2.59275e-09
-9.10064e-08 6.91061e-08 4.75615e-09
-1.23582e-07 3.9449e-08 4.30872e-09
-1.02738e-07 5.52029e-08 1.76104e-08
1.61298e-07 5.65352e-08 3.56943e-08
1.62099e-07 6.09494e-08 4.25775e-08
1.74004e-08 9.23254e-08 -3.81489e-09
6.28463e-08 8.87218e-08 -2.66803e-08
1.90713e-08 9.89236e-08 -4.41777e-09
5.28768e-08 9.45493e-08 5.75773e-09
3.72225e-08 9.35337e-08 2.73576e-09
-1.61018e-09 9.75708e-08 -1.11385e-08
7.05555e-09 9.48898e-08 -8.66135e-09
3.11259e-08 8.53599e-08 -6.1525e-09
3.10248e-08 8.68033e-08 -7.51983e-09
2.52946e-07 1.70134e-08 -9.96234e-09
2.53155e-07 1.67528e-08 -8.5e-09
2.54065e-07 2.06354e-08 1.74775e-08
2.49621e-07 2.32758e-08 1.95574e-08
1.15087e-07 7.79948e-08 3.53787e-08
1.30004e-07 7.31556e-08 4.13104e-08
1.13786e-07 8.04176e-08 4.15246e-08
5.9849e-08 -4.18764e-08 2.10387e-08
1.18674e-07 6.64507e-08 -4.72248e-08
1.15534e-07 6.34275e-08 -4.22641e-08
5.09069e-08 -4.39713e-08 1.93104e-08
5.95289e-08 -4.40482e-08 1.99245e-08
2.2818e-07 1.91913e-08 -7.37143e-08
2.25313e-07 2.15779e-08 -6.91489e-08
1.84436e-07 2.54467e-08 -6.53922e-08
-1.01335e-07 5.47869e-08 2.07782e-08
-6.87135e-08 -4.84434e-08 -2.64064e-09
-7.04094e-08 -4.92527e-08 -4.32342e-09
-1.44748e-07 2.81373e-09 1.49057e-09
-1.464e-07 3.84252e-09 1.71739e-09
-1.10536e-07 5.24705e-08 2.23263e-08
-1.00494e-07 5.47232e-08 2.32404e-08
-8.93344e-08 2.56772e-08 -1.20755e-08
-8.72128e-08 3.06838e-08 -1.26258e-08
7.34402e-08 5.5184e-08 3.44322e-08
-1.5129e-07 -4.91618e-09 -9.26868e-09
-1.52322e-07 -3.80879e-09 -9.27688e-09
-8.94172e-08 3.25959e-08 -1.38792e-08
2.26313e-07 2.85694e-08 3.16416e-11
2.23477e-07 3.03094e-08 2.23011e-09
-1.27644e-07 3.68105e-08 1.74406e-08
-1.2672e-07 3.63506e-08 1.7887e-08
-1.56508e-07 -1.60296e-09 -7.32864e-09
-1.57309e-07 -4.8199e-10 -7.3617e-09
1.80423e-08 9.41061e-08 8.72693e-09
1.7884e-08 9.67695e-08 1.24825e-08
-8.65824e-08 3.90078e-08 -1.44733e-08
-5.95225e-08 -4.09275e-08 -2.50864e-09
-8.99389e-08 4.04078e-08 -1.64419e-08
-1.46167e-07 1.45539e-08 6.86154e-09
-1.48734e-07 1.01032e-08 4.23037e-09
2.14619e-07 3.33964e-08 -7.96448e-09
2.18113e-07 3.12774e-08 -5.19077e-09
-1.45253e-07 1.303e-08 6.76784e-09
-7.06122e-08 -5.34061e-08 -8.0502e-11
1.54923e-07 -1.80493e-08 2.923e-09
1.55925e-07 -1.96394e-08 2.27903e-09
-6.43473e-08 -5.58643e-08 -8.37777e-10
-6.45451e-08 -5.59493e-08 -1.68475e-09
1.6859e-08 -5.23601e-08 1.43707e-08
1.33587e-08 -5.60474e-08 1.30727e-08
1.66072e-08 -5.64034e-08 1.54864e-08
-5.18864e-08 8.07705e-08 -2.36609e-08
-5.11588e-08 8.51656e-08 -2.53076e-08
-4.63667e-08 8.52411e-08 -2.17695e-08
-7.93702e-08 -4.16598e-08 -7.88929e-09
-4.3363e-08 8.7805e-08 -2.26851e-08
1.84211e-07 4.53783e-08 5.32767e-09
-1.18977e-07 4.35302e-08 9.14364e-09
-1.23086e-07 4.24121e-08 6.82693e-09
1.71963e-07 4.72267e-08 -7.07404e-10
1.66972e-07 4.87018e-08 -6.03075e-09
1.74464e-07 4.62817e-08 -3.81841e-09
1.72725e-07 4.59215e-08 -2.49834e-09
-1.03316e-07 5.70222e-08 -3.37757e-08
-1.12162e-07 5.35209e-08 -3.24199e-08
-1.11583e-07 5.16779e-08 -3.35111e-08
-1.04055e-07 -2.24468e-08 -1.03483e-09
-1.02518e-07 -2.40814e-08 -5.12202e-10
-1.01283e-07 -2.39102e-08 -1.2267e-09
1.61203e-07 5.42121e-08 7.77877e-09
1.5854e-07 5.66567e-08 6.75428e-09
2.08308e-07 3.61461e-08 -6.6656e-09
2.05505e-07 3.65326e-08 -3.51915e-09
-1.12522e-07 5.5757e-08 -3.47057e-08
-1.12407e-07 5.20535e-08 -3.46993e-08
-1.21496e-07 4.10018e-08 9.97834e-09
-1.1694e-07 4.41377e-08 1.56695e-08
8.17625e-08 7.62157e-08 -1.79157e-08
2.38686e-09 8.63586e-08 1.01221e-08
-1.22703e-07 4.27116e-08 1.44479e-08
-1.13598e-07 5.32087e-08 2.36579e-08
4.64756e-08 9.19518e-08 4.10765e-09
-1.90237e-06 3.99728e-07 5.31668e-06
8.7149e-05 -8.86547e-06 0.000155095
-1.12136e-07 5.25602e-08 2.51299e-08
-4.87447e-09 8.62191e-08 5.33359e-09
4.94284e-08 9.30499e-08 8.64052e-09
1.31112e-07 -2.6456e-08 2.24943e-08
-3.6452e-08 -3.13145e-08 -1.08678e-09
1.28541e-07 -2.36739e-08 1.88103e-08
6.18061e-08 9.32397e-08 1.0515e-08
4.82213e-08 8.96253e-08 6.84755e-09
1.92481e-07 4.24517e-08 2.38893e-08
1.92966e-07 4.19537e-08 2.56673e-08
1.84855e-07 4.55485e-08 2.57092e-08
1.91092e-07 4.15308e-08 2.18527e-08
1.47794e-07 5.82368e-08 9.53406e-09
1.51187e-07 5.84909e-08 1.16393e-08
1.92532e-07 4.4105e-08 1.36671e-08
1.97371e-07 4.15608e-08 9.83159e-09
1.90927e-07 4.47469e-08 1.08899e-08
1.49e-07 5.90251e-08 8.75906e-09
-1.17805e-07 4.71373e-08 1.91898e-08
-1.38546e-07 2.95588e-08 -8.08285e-09
-1.41976e-07 3.04112e-08 -1.19546e-08
7.47117e-08 7.57818e-08 -1.42912e-08
-1.38883e-07 1.68621e-08 -1.96079e-08
-1.40284e-07 1.77807e-08 -1.97716e-08
1.68997e-07 -2.30447e-08 7.2871e-09
1.81703e-07 -2.22054e-08 8.29975e-09
1.70276e-07 -2.13009e-08 1.294e-08
-1.14797e-07 5.09931e-08 -3.09454e-08
-1.19557e-07 4.59589e-08 -3.00506e-08
-4.07262e-08 -4.50612e-08 3.99711e-10
-4.19092e-08 -4.75376e-08 -9.99694e-11
-6.61464e-08 -1.66462e-08 -8.56237e-10
2.56899e-07 1.47252e-08 -1.32069e-08
-4.14531e-08 -4.12401e-08 1.64016e-09
2.53045e-07 1.57741e-08 -9.95371e-09
-1.13767e-07 5.06857e-08 -3.31424e-08
4.16068e-08 9.00889e-08 6.92027e-09
5.47435e-08 8.62594e-08 1.16986e-08
4.30872e-08 9.16792e-08 9.79036e-09
1.60871e-07 5.58938e-08 2.82444e-09
9.50041e-08 7.98658e-08 2.52527e-08
1.6392e-07 5.54145e-08 4.11721e-09
1.54647e-07 5.23958e-08 -6.30645e-09
4.41446e-08 -4.03147e-08 -1.3669e-08
-9.46745e-08 -3.74425e-08 -7.19914e-09
-9.37699e-08 -3.69981e-08 -7.25388e-09
-5.85476e-08 7.32141e-08 1.81243e-08
-5.03866e-08 8.04506e-08 1.80312e-08
-5.09399e-08 7.62768e-08 1.76868e-08
1.43144e-07 6.3404e-08 -3.51078e-08
-2.80876e-08 8.83252e-08 -1.59979e-08
-2.71219e-08 8.86247e-08 -1.82581e-08
1.40755e-07 5.60996e-08 -2.66605e-08
6.63295e-08 8.31321e-08 -1.74037e-08
5.72124e-08 8.21283e-08 -1.31115e-08
4.96336e-08 8.68434e-08 -1.20742e-08
2.04647e-07 3.72939e-08 7.101e-10
2.07104e-07 3.65748e-08 -4.55228e-09
1.37959e-07 6.22988e-08 1.10673e-08
1.23629e-07 6.63392e-08 1.31063e-08
1.24495e-07 6.72492e-08 1.54524e-08
4.4292e-08 -4.3728e-08 -9.40844e-09
5.2678e-08 -4.06481e-08 -9.44039e-09
5.02834e-08 -4.42005e-08 -1.01502e-08
3.52442e-08 -5.2559e-08 2.16804e-08
3.58096e-08 -4.97823e-08 1.96536e-08
4.33185e-08 -4.97999e-08 2.18494e-08
-8.41856e-08 6.38866e-08 2.03531e-08
-8.13287e-08 6.68191e-08 2.23023e-08
-8.13255e-08 7.08955e-08 2.11284e-08
1.56564e-07 5.20577e-08 -1.03174e-08