# vtk DataFile Version 2.0
S, Created by Mohamad Ibrahim Cheikh
ASCII
DATASET UNSTRUCTURED_GRID
POINTS 6172 double
-15.2843 8.16005 -87.4575
-13.3398 5.84951 87.6812
57.6557 -76.6201 38.2933
60.5026 -77.9745 34.8684
-223.408 39.6754 7.69372
-63.5007 85.1206 2.19281
-72.0597 -64.4031 54.4106
-70.0006 -67.2041 51.2609
-36.1799 31.5294 -81.1766
-129.866 -12.397 -74.3337
-133.727 -10.7289 -73.7527
-110.407 38.1313 -69.2647
-115.299 35.9179 -69.4719
-10.4895 -6.51027 87.6821
18.5079 -7.98976 87.3969
15.4062 -4.35783 87.7266
173.209 -16.4911 61.6358
172.503 -11.8358 62.9342
-60.059 85.447 -1.08983
-16.6072 3.28514 87.7465
-168.473 -29.1132 -58.4931
-165.339 -26.0894 -60.9629
-132.609 20.7317 -71.8418
-127.527 20.9443 -72.8988
-19.6181 0.426918 -87.7308
-32.9781 -81.122 -32.0946
-37.0933 -81.7098 -29.9842
-33.3067 -1.73322 87.2077
40.9902 56.1476 -66.2249
-152.585 57.2965 -40.1333
-157.409 54.4796 -41.7424
-162.136 -30.2988 60.0625
-156.538 -30.2937 61.8566
-202.904 28.2137 -43.6753
-45.0704 78.0353 37.4939
-42.1595 76.6769 40.5838
-44.9948 74.5435 44.0386
-169.089 43.0435 48.8961
-170.859 38.8273 51.5981
-246.506 -17.1839 3.03362
69.6546 -69.0255 -48.8413
66.4106 -71.2881 -46.0657
-248.532 -12.9924 3.59085
-141.21 54.3875 -48.422
-139.1 57.5974 -45.3614
-147.699 57.4091 -42.1587
-142.858 59.4599 -41.3511
-190.841 -49.2642 29.2927
-192.078 -45.9982 33.3349
-181.071 26.9418 54.8092
-177.374 30.6182 54.3568
-189.253 -2.53682 -57.9007
-194.117 -1.92523 -55.9192
-162.17 61.9375 -26.2285
-7.99566 -11.0654 87.2567
-225.557 -8.49543 -37.9879
-232.68 -33.2731 2.91581
-235.91 -30.4942 0.651111
-250.15 1.84394 8.91717
-250.339 -3.74944 7.56537
-207.18 -49.7606 -3.57097
-205.845 -49.8685 -8.33702
-240.07 6.4414 -25.4243
-228.177 -11.5473 -35.1614
-189.951 -34.9023 45.9171
-73.5123 -23.6979 -80.7514
-77.5305 -25.5841 -79.709
-194.063 -35.8184 43.0147
-226.859 -16.9526 -33.9958
-221.689 -18.8518 -37.0354
-212.542 47.0453 0.190662
-215.277 45.3844 3.20872
162.343 -23.7365 62.8801
-234.767 31.4839 -2.21805
-102.921 74.6575 29.553
-107.407 74.2798 28.5327
-29.343 25.5979 83.5663
4.19718 19.0813 -85.8938
-27.8279 29.9146 82.1846
-227.824 7.73261 36.4636
-230.652 3.98624 34.8536
156.825 2.4109 -68.7542
154.372 -2.28466 -69.4346
-224.174 1.46044 39.8656
-221.11 -2.35351 41.8673
150.178 -12.5111 -69.4712
17.6918 -16.9489 86.1302
22.6505 -16.1371 86.144
146.292 -8.99553 -71.0133
160.901 -67.3714 5.9564
164.639 -66.4818 2.35967
-152.164 64.7542 26.7614
-226.597 12.7146 36.0002
-203.604 -40.1049 32.5623
-201.251 -38.3838 36.2216
28.1939 87.0719 8.07269
-232.954 19.0996 -27.1141
24.9941 86.6699 12.4841
-173.87 -62.6483 10.8647
-232.491 26.4373 20.6747
174.474 26.7712 -57.449
-229.444 30.2285 19.6203
-245.234 -19.4874 -1.13837
-242.326 -23.551 0.0654783
-23.5777 -7.04487 -87.3287
-238.802 19.0026 -20.0278
-182.276 -59.2237 12.995
-245.057 16.4976 -10.9314
-242.187 20.2411 -12.3778
-211.985 10.4236 -46.1911
-214.693 6.07694 -45.4301
-231.123 34.6857 0.952692
-227.497 37.516 -0.411409
-179.128 -61.1001 9.07628
190.774 -1.28019 57.3282
186.737 -4.01434 58.8102
149.587 -34.2628 -61.8911
151.89 -30.2055 -63.3016
10.7784 24.9949 -84.2914
158.236 -28.3557 -62.2453
-208.815 -7.42982 -48.4809
210.455 -38.4175 -29.0769
213.833 -34.7571 -30.6249
-236.768 4.19464 29.378
-103.741 79.2946 11.7792
-114.058 -60.3355 -50.1088
-109.225 -63.3248 -47.6799
132.657 19.6128 72.1445
135.951 21.8178 70.747
-98.4424 79.9923 12.6004
-234 29.5455 12.9327
-237.064 25.7912 14.0814
-226.298 25.3067 28.8754
2.30713 87.7759 -6.22426
7.10044 87.8373 -4.73628
-228.66 21.3244 29.7986
-34.9384 23.7562 83.8462
-242.557 -21.381 9.15435
-245.01 -18.1004 8.17817
152.066 -2.42965 70.05
147.982 -4.90547 70.985
-34.6099 68.9862 -53.2753
-39.8581 68.5248 -53.4215
35.5362 87.0568 -3.24125
40.6375 86.8197 -2.03924
194.025 43.1435 -35.6887
195.831 39.5276 -38.5534
38.1977 -86.743 6.40511
42.7536 -86.4319 7.05289
174.695 57.591 -26.2851
175.979 58.909 -21.9599
195.074 19.661 51.9471
196.174 15.1437 52.9435
131.317 -71.9989 21.1883
-203.818 -13.99 -49.6216
-93.0999 81.0649 10.5499
-94.0406 81.4273 5.55525
-208.3 -13.3598 -47.4698
147.966 -26.3707 -66.0916
-23.4451 -57.4132 -66.1848
-21.1146 -60.7127 -63.2723
-8.80415 -6.01975 -87.7398
-166.754 37.3184 54.2855
-100.441 -13.1375 79.6008
-103.372 -10.1221 79.582
-103.234 -73.3843 -32.4651
192.822 -41.711 -38.1075
188.887 -41.2562 -40.9121
28.1146 84.0146 -24.2646
24.2678 83.2278 -27.2953
-107.184 -71.2331 -35.5433
-220.777 31.994 27.4371
-217.479 34.7425 27.3196
-217.953 -36.6309 24.2141
-216.372 -34.0713 29.1781
-219.107 -29.6669 31.4046
0.337502 -74.6783 46.5525
3.95644 -76.542 43.3982
62.2985 -74.3886 41.6554
110.841 6.37347 -78.7352
2.76489 -72.2326 50.2545
158.397 31.4284 -60.7003
160.651 27.6859 -61.7876
-123.491 74.8607 16.5167
-123.877 72.4125 24.9332
-127.591 73.0537 20.3485
-28.5847 81.4489 -31.7812
-37.3076 81.5021 -30.5124
93.5736 -73.9909 34.6026
20.5428 19.9958 -85.3961
-33.8763 80.4346 -33.6716
-58.5413 79.7662 31.0124
-64.3156 79.5763 30.0863
-41.0143 86.5212 -7.22029
210.666 0.841711 -48.0604
209.289 -3.73929 -48.6555
-61.6603 81.2765 25.9353
-79.3107 -74.9547 36.8195
150.861 -64.5782 28.0583
155.118 -62.7773 29.2766
37.8466 -25.5823 -83.1515
-76.0285 -73.8623 39.7577
-47.8473 -33.7164 -79.5419
-42.9713 -31.3895 -80.8247
13.5664 73.7297 -47.8058
16.2231 70.6764 -52.1213
-76.6271 -70.7521 44.9362
-165.276 -42.094 -51.2617
-160.342 -41.092 -53.9241
-159.026 -37.0821 -57.2078
75.1342 -19.9791 81.5702
80.4506 -47.9753 68.1907
79.7683 -16.9796 81.7109
5.25241 74.6249 -46.602
0.238164 72.362 -50.0772
5.45471 79.3027 -38.0978
9.34129 77.3937 -41.7556
-102.15 8.19807 79.9955
-105.451 5.47403 79.7034
82.4387 -51.3931 65.3506
-3.05025 -29.3379 82.9587
87.89 -52.1945 63.8279
131.902 14.4017 73.5291
136.371 12.9924 72.7899
-76.7694 -66.8401 -50.5455
-72.8052 -64.7615 -53.8608
-148.01 -17.1544 -69.0481
-153.07 -19.9946 -66.9
-120.771 36.6278 67.9461
-118.934 40.8535 65.9027
97.1426 -75.4362 29.9674
102.024 -74.3035 30.7997
241.191 21.1876 -13.149
242.527 17.5543 -15.3164
-33.01 79.8939 35.0364
61.1101 -70.7186 -47.8086
57.1052 -66.2766 -54.3338
61.6844 -67.9861 -51.5368
-97.8793 -64.9304 48.5295
-97.1222 -61.9 52.5122
-162.102 40.4957 53.7308
-140.298 -72.9111 -4.25521
-138.353 -73.4879 0.0361759
43.6122 -82.2793 27.2258
37.7886 -80.3687 33.3174
38.518 -81.9695 29.0406
-82.89 -64.9989 -51.749
77.1285 -73.0307 -41.0146
-10.5956 -81.221 -33.6661
-15.5959 -81.4186 -32.9429
72.7663 -74.6047 -39.1137
72.6792 -77.1815 -33.7685
51.156 85.1266 13.3066
46.3941 85.3324 14.1018
43.8411 84.7753 17.9396
160.025 -42.0638 53.2865
159.802 -38.5169 55.9818
156.409 -44.9715 52.2154
-67.0996 66.8704 -52.1644
-186.383 7.89215 58.5548
111.77 -17.038 -76.969
113.231 -12.1092 -77.6379
-12.9895 9.82228 87.3319
201.506 -34.6632 39.6386
-119.699 -74.1044 22.3242
209.898 -30.698 37.5194
205.394 -31.0581 40.1805
-236.435 6.63975 -29.2549
-170.904 -64.2385 6.43831
237.707 -19.9127 -20.7261
239.421 -15.6952 -21.901
-200.393 25.9368 46.4196
-235.382 2.17492 -30.9199
52.5937 -76.6512 39.1143
-197.332 36.3435 -40.6905
-192.159 38.9239 -41.3303
49.4874 62.1408 59.8556
54.4927 63.3107 58.0707
-2.66238 -82.0763 31.7272
3.05984 -83 29.2206
-72.7702 -60.7828 -58.3191
-77.3741 -54.431 -63.6263
-77.8239 -58.4984 -59.8366
-81.4127 -52.571 -64.5664
196.725 -35.4733 41.8031
194.64 -32.6315 45.1769
-78.1975 -46.45 -69.554
-72.7176 -47.1049 -69.8408
-42.0878 4.02504 -86.6656
51.2527 1.21018 86.1448
56.8395 -1.93069 85.7014
-40.8199 8.42708 -86.4233
-27.2894 -79.0367 -37.4969
-27.2314 -76.6092 -42.2402
141.299 -61.7727 -38.5199
149.79 -57.6475 -40.9121
-104.606 15.5873 -78.4943
-101.398 19.3167 -78.1798
146.793 -60.4998 -38.0213
-165.569 -41.9969 51.2254
-163.049 -46.8444 47.9038
35.7797 71.1183 -50.2937
105.556 -59.6577 53.1114
108.933 -56.3429 55.8271
-174.361 -4.59566 63.2517
-169.572 -0.202641 64.9885
-140.558 -58.6572 43.4111
-136.622 -61.8476 40.4185
-145.359 70.777 12.1553
-150.563 68.9791 14.508
-173.345 -38.2696 -50.9961
-231.47 2.76332 -34.3038
90.4764 64.4919 -50.8191
94.7416 66.1568 -47.6271
230.451 -29.814 -18.7918
226.833 -31.1716 -21.7462
-53.0046 -27.6892 -81.4453
-52.1626 -32.1214 -79.8692
18.678 57.1621 66.5866
22.2376 54.351 68.7708
-132.116 -69.465 27.9574
-136.668 -69.6285 24.6798
-184.813 -55.5231 21.8964
-189.721 -54.1508 20.1228
-58.6909 76.0988 -39.1311
-65.3199 74.8327 -40.2703
-192.871 -50.7991 24.6806
-186.921 57.2926 -13.5616
31.3921 -18.8676 85.2488
-183.884 59.939 -3.39808
53.3453 -15.9605 84.5036
58.0446 -14.1197 84.452
133.445 -74.2145 -7.484
-180.05 61.0284 -7.11123
-182.326 59.4057 -12.043
-170.115 5.99472 64.537
-182.546 57.3282 -19.4354
-166.542 9.9503 65.186
-167.908 15.552 63.6431
-96.9855 64.1554 49.7643
-91.1968 66.5035 47.9901
41.5177 81.5409 -29.7328
44.9009 82.4035 -26.5863
48.353 83.3784 -22.49
-181.834 -17.7214 -58.1548
-180.211 -23.9591 -56.5146
77.5711 62.955 55.1721
78.5274 59.7414 58.4807
-174.777 -23.9667 -58.5636
-125.964 -53.8599 53.8564
-123.523 -49.981 58.1195
-130.492 -54.8123 51.5252
-115.13 -28.681 72.7915
-150.455 -17.5569 68.296
-115.841 -37.5292 68.503
-117.431 -32.7137 70.608
-71.8141 -69.6742 47.5195
16.8224 -2.21243 -87.775
-148.716 -34.1912 62.187
-144.587 -37.7211 61.3323
-183.215 15.6152 -58.2276
-178.608 14.6167 -60.2057
-111.436 -76.2789 -20.129
-108.262 -77.6476 -16.7293
-107.666 65.9433 -44.4553
-112.575 66.8321 -41.5439
-103.409 67.7108 -43.0123
-230.322 -33.0457 12.5402
-232.957 -32.0084 8.67549
-226.526 -36.5212 11.3051
-166.324 -64.5129 13.9712
-185.133 -51.1453 30.5277
-70.6144 62.0931 -57.2535
-65.4702 62.7175 -57.3214
-176.617 2.36543 -62.6049
-87.1107 31.4602 76.3231
-171.443 2.11289 -64.3503
-149.552 15.3762 -69.0602
-149.564 10.238 -70.0035
-172.576 -6.68291 -63.6635
-170.126 -3.4532 -64.7194
-123.56 11.7838 75.7363
-128.479 12.9029 74.5425
-41.1452 86.0707 11.3388
-39.0928 85.3332 16.5875
-43.2788 84.7224 -18.352
-48.9272 84.0868 -19.5022
-50.572 43.8937 -74.1905
-43.6236 50.4722 -70.4526
[...]
POINT_DATA 6172
VECTORS F double
-6.13601e-09 6.26784e-08 5.97934e-09
-2.68087e-08 3.49294e-08 -2.82958e-09
-1.20862e-07 -1.52079e-08 -8.14979e-09
-1.21202e-07 -1.56245e-08 -9.19232e-09
1.0415e-07 7.19471e-08 -7.56072e-10
2.16229e-07 1.96903e-08 2.28357e-09
-1.15755e-07 2.76399e-08 1.3947e-08
-1.21408e-07 2.43632e-08 1.16428e-08
7.54211e-08 8.51706e-08 2.89652e-08
-7.89857e-09 8.34837e-08 -1.22335e-08
-8.90143e-09 8.36614e-08 -1.01943e-08
8.94893e-08 7.24003e-08 2.23933e-08
8.90747e-08 7.08394e-08 1.85256e-08
-4.57529e-08 2.59475e-08 1.25648e-09
-4.86e-08 -1.50077e-09 1.12289e-09
-4.44883e-08 3.0023e-09 1.10573e-09
-3.55768e-08 -5.02999e-08 -1.21773e-09
-2.90112e-08 -4.92894e-08 4.66037e-10
2.21061e-07 1.90928e-08 5.45315e-09
-2.81299e-08 3.56722e-08 -1.98736e-09
-4.10839e-08 7.62563e-08 -2.3467e-08
-3.77803e-08 7.79378e-08 -2.08092e-08
5.72461e-08 7.77017e-08 9.48582e-09
5.89057e-08 8.12673e-08 1.07324e-08
-1.77542e-08 6.21686e-08 7.88587e-10
-1.34751e-07 1.55765e-08 -2.24192e-08
-1.35339e-07 1.5469e-08 -2.16564e-08
-3.21173e-08 4.62233e-08 -5.831e-10
9.54691e-08 1.93001e-08 2.35977e-08
1.28389e-07 5.07518e-08 1.26944e-08
1.24914e-07 5.36637e-08 1.23682e-08
-4.72781e-08 6.44881e-08 1.69061e-08
-4.63161e-08 6.69855e-08 1.84555e-08
7.3757e-08 7.52895e-08 6.68455e-09
1.99355e-07 2.34242e-08 -1.94129e-08
2.03215e-07 2.47968e-08 -2.10035e-08
1.89551e-07 2.94138e-08 -2.60774e-08
9.51773e-08 5.68375e-08 -9.73812e-09
8.36728e-08 5.92997e-08 -1.0701e-08
-5.00574e-08 8.77681e-08 -8.33035e-10
-1.06422e-07 -7.94943e-09 -7.34702e-09
-1.09778e-07 -6.71641e-09 -8.98229e-09
-4.04061e-08 9.44763e-08 -5.52917e-10
1.22866e-07 5.62689e-08 1.93335e-08
1.33231e-07 5.29631e-08 1.72308e-08
1.31707e-07 5.38747e-08 1.68707e-08
1.34006e-07 5.28299e-08 1.92853e-08
-8.69519e-08 4.8334e-08 1.19321e-08
-7.8467e-08 5.0941e-08 1.49379e-08
6.19624e-08 6.8507e-08 -8.61311e-09
6.70954e-08 6.50831e-08 -9.85483e-09
1.16789e-08 8.53803e-08 -8.41448e-09
9.98497e-09 8.1904e-08 -7.06362e-09
1.38237e-07 4.85144e-08 9.92154e-09
-5.37536e-08 2.0723e-08 2.0249e-09
-8.83515e-09 8.60695e-08 -1.28258e-08
-7.70741e-08 6.59223e-08 -7.49398e-10
-7.41233e-08 7.01371e-08 -3.22487e-09
6.36819e-09 1.04305e-07 3.08255e-10
-1.26761e-08 1.03158e-07 -2.23132e-10
-9.23772e-08 4.77263e-08 -8.88699e-09
-9.31832e-08 4.89643e-08 -1.12039e-08
2.39613e-08 9.58322e-08 -3.4221e-09
-1.73122e-08 8.73524e-08 -1.4933e-08
-5.85082e-08 6.14511e-08 1.70771e-08
-4.64147e-08 8.94716e-08 -2.10838e-08
-4.62504e-08 8.53808e-08 -2.18969e-08
-5.89677e-08 5.80137e-08 1.57373e-08
-3.12163e-08 8.18778e-08 -1.53263e-08
-3.09929e-08 8.03392e-08 -1.81812e-08
1.17358e-07 6.49125e-08 7.7708e-11
1.13671e-07 6.61173e-08 -1.46754e-09
-4.62553e-08 -4.58785e-08 -2.6978e-09
8.94442e-08 8.17826e-08 1.7796e-09
1.73673e-07 3.14755e-08 -5.46451e-09
1.71453e-07 3.14933e-08 -2.9693e-09
1.99291e-08 5.89406e-08 -1.71979e-08
6.72601e-09 4.8207e-08 1.07494e-08
3.27014e-08 5.52109e-08 -1.87407e-08
2.27315e-08 8.60147e-08 -8.51923e-10
1.40583e-08 8.88204e-08 1.2321e-09
-7.75762e-09 -3.61661e-08 -3.43458e-09
-1.64089e-08 -3.26715e-08 -3.39147e-09
6.1879e-09 8.51841e-08 1.13964e-09
6.0836e-10 8.1482e-08 4.97394e-09
-2.73072e-08 -3.29044e-08 -1.30147e-09
-6.0527e-08 -1.95645e-09 1.13717e-09
-5.92832e-08 -4.49273e-09 1.0668e-09
-2.50216e-08 -2.99179e-08 -2.52106e-09
-9.83569e-08 -2.93101e-08 -6.23024e-09
-9.64537e-08 -2.94297e-08 -5.22662e-09
1.45883e-07 4.19943e-08 -5.89867e-11
3.81621e-08 8.41119e-08 -2.98162e-10
-7.31132e-08 5.68295e-08 1.40233e-08
-6.97005e-08 5.75915e-08 1.36165e-08
1.51746e-07 -1.13734e-08 6.291e-08
5.75813e-08 8.77739e-08 1.26027e-09
3.19239e-07 -8.31601e-09 -1.93895e-08
-1.02802e-07 3.52422e-08 1.79735e-09
7.38358e-08 8.32532e-08 -4.80369e-09
3.00833e-08 -4.01499e-08 -7.52424e-09
8.25774e-08 7.84195e-08 -2.5901e-09
-5.53923e-08 8.55846e-08 -4.14464e-09
-6.25914e-08 7.88408e-08 -2.81097e-09
-2.83586e-08 6.14514e-08 -4.01998e-09
5.82213e-08 9.04773e-08 8.52712e-10
-9.97879e-08 3.85701e-08 4.41677e-09
5.36417e-08 9.74862e-08 -1.03659e-10
6.26933e-08 9.30249e-08 1.93718e-09
3.61895e-08 8.04174e-08 -2.18675e-09
2.45949e-08 8.59401e-08 -2.73453e-09
9.6348e-08 7.86334e-08 -1.17718e-09
1.01129e-07 7.50907e-08 9.68764e-10
-1.03344e-07 3.70697e-08 -1.57969e-10
-1.53391e-08 -5.29878e-08 5.06622e-09
-1.71968e-08 -5.2735e-08 3.08562e-09
-5.54682e-08 -2.75632e-08 -1.15457e-09
-4.86904e-08 -3.00938e-08 5.6117e-11
1.86907e-08 4.2668e-08 1.29449e-08
-4.77537e-08 -2.95538e-08 -1.39947e-09
-1.87973e-09 8.38568e-08 -1.18602e-08
-6.14586e-08 -4.13805e-08 2.12569e-10
-5.67636e-08 -4.40483e-08 1.46714e-09
1.36684e-08 9.20871e-08 3.3899e-10
1.8699e-07 2.97808e-08 1.14587e-09
-9.61094e-08 5.40704e-08 -3.83221e-08
-9.98203e-08 4.78854e-08 -3.5602e-08
7.43037e-09 -5.22439e-08 1.253e-08
9.55534e-09 -5.29468e-08 1.40804e-08
1.89402e-07 2.88347e-08 -1.8906e-09
8.35697e-08 8.18705e-08 -1.91125e-09
7.52127e-08 8.67831e-08 -3.92462e-09
6.83271e-08 7.8867e-08 -3.55999e-09
2.61658e-07 -2.17273e-10 8.85636e-09
2.77919e-07 -2.48005e-09 5.18761e-09
5.8246e-08 8.32546e-08 -4.8577e-09
1.89573e-08 5.91178e-08 -1.57828e-08
-5.72931e-08 8.05873e-08 2.36352e-09
-5.19105e-08 8.67251e-08 1.54302e-09
-2.12329e-08 -5.13823e-08 3.86102e-09
-2.26903e-08 -5.09656e-08 2.26924e-09
1.73801e-07 4.15412e-08 3.99682e-08
1.72545e-07 4.2214e-08 3.83873e-08
-7.48665e-07 2.96049e-08 -2.26499e-07
-1.99193e-06 1.24748e-07 4.46395e-07
5.40453e-08 -3.52908e-08 -6.6899e-09
4.8461e-08 -3.76976e-08 -8.51328e-09
-1.33364e-07 -7.93909e-09 -1.01441e-08
-1.32542e-07 -8.85078e-09 -1.00973e-08
7.13593e-08 -2.79995e-08 -3.283e-09
7.30573e-08 -2.78224e-08 -2.95838e-09
1.69606e-08 -5.01443e-08 1.1181e-08
9.43058e-09 -5.27989e-08 1.08243e-08
-1.05661e-07 -2.6311e-08 -9.23259e-09
-1.44304e-08 8.20595e-08 -1.58787e-08
1.93124e-07 2.6965e-08 1.45596e-09
1.9363e-07 2.73688e-08 1.40308e-10
-1.57253e-08 8.06928e-08 -1.42621e-08
-4.59855e-08 -2.74892e-08 -1.63632e-09
-1.0467e-07 3.25768e-08 -2.37199e-08
-1.09456e-07 2.87185e-08 -2.30848e-08
-3.27021e-08 5.00678e-08 -3.03336e-09
8.40197e-08 5.94757e-08 -9.28812e-09
-2.71927e-08 7.47247e-08 8.13185e-09
-2.36031e-08 7.97193e-08 6.38596e-09
-1.19452e-07 3.39117e-08 -3.01508e-08
-6.33393e-08 -3.60656e-08 2.37786e-10
-6.39569e-08 -3.59251e-08 7.55566e-11
3.08457e-07 2.67963e-09 5.30724e-08
2.80751e-07 8.83381e-09 5.75348e-08
-1.15159e-07 3.84124e-08 -3.44667e-08
8.22951e-08 7.38182e-08 -5.00435e-09
8.71263e-08 7.08038e-08 -5.12669e-09
-7.28291e-08 5.96717e-08 1.0013e-08
-6.66984e-08 6.05035e-08 1.00953e-08
-5.90449e-08 6.6363e-08 1.22558e-08
-1.27975e-07 -1.05302e-09 -1.57557e-09
-1.29097e-07 -2.62903e-09 -3.19591e-09
-1.18083e-07 -1.73713e-08 -9.40039e-09
-9.04816e-09 -2.72254e-08 -3.76341e-09
-1.25244e-07 -1.70694e-09 -1.60978e-09
3.22666e-08 -3.54528e-08 -8.04765e-09
2.77434e-08 -3.87089e-08 -8.51335e-09
1.72463e-07 3.45588e-08 1.2346e-09
1.65064e-07 3.53337e-08 -2.21296e-09
1.64111e-07 3.60345e-08 -3.38501e-09
2.10291e-07 2.13881e-08 3.16547e-08
2.06556e-07 2.24245e-08 2.89746e-08
-1.12887e-07 -2.18393e-08 -9.32413e-09
6.92001e-09 3.2603e-08 7.83787e-09
2.09026e-07 2.3233e-08 2.975e-08
1.98474e-07 2.39165e-08 -1.5646e-08
1.95754e-07 2.3181e-08 -1.00796e-08
2.34995e-07 1.42776e-08 7.6536e-09
-3.0909e-09 -4.59073e-08 -2.46287e-09
-1.11783e-08 -4.40307e-08 -2.50303e-09
2.06111e-07 2.12681e-08 -6.65676e-09
-1.27819e-07 1.96378e-08 6.26893e-09
-9.54375e-08 -3.08029e-08 -8.07146e-09
-9.40471e-08 -3.22638e-08 -8.17606e-09
-6.11931e-08 6.79788e-09 -5.50137e-09
-1.28398e-07 2.07427e-08 8.47516e-09
-6.7544e-08 6.26476e-08 -2.15808e-08
-6.6377e-08 6.35008e-08 -2.0341e-08
1.95456e-07 3.88993e-08 6.6785e-08
1.72832e-07 3.51711e-08 5.4279e-08
-1.22778e-07 2.2252e-08 9.4032e-09
-6.29834e-08 6.35445e-08 -2.73183e-08
-6.27906e-08 6.7427e-08 -2.85232e-08
-5.38722e-08 6.86956e-08 -2.61941e-08
-5.38417e-08 -3.16535e-08 -1.68115e-09
-8.70839e-08 -2.63965e-08 -5.99254e-09
-5.05643e-08 -3.47639e-08 -1.18052e-09
2.12724e-07 3.93494e-08 6.59417e-08
2.15367e-07 4.04102e-08 5.85142e-08
2.18451e-07 1.66702e-08 3.85311e-08
2.38455e-07 2.57863e-08 5.43209e-08
1.54029e-08 7.87494e-08 -5.66231e-09
1.17708e-08 7.94132e-08 -3.54741e-09
-9.06997e-08 -2.77994e-08 -7.854e-09
-7.81104e-08 1.15072e-08 3.71784e-09
-8.97062e-08 -2.75653e-08 -7.41807e-09
-2.33206e-09 -5.19313e-08 1.06837e-08
-1.33011e-09 -5.04692e-08 9.3134e-09
-1.11521e-07 4.14156e-08 -3.40299e-08
-1.11965e-07 4.42299e-08 -3.46522e-08
-1.95243e-08 8.31433e-08 -1.55323e-08
-1.99935e-08 7.87077e-08 -1.7923e-08
8.0609e-08 6.19673e-08 -1.5863e-08
9.46303e-08 5.7886e-08 -1.49753e-08
-1.13123e-07 -2.19102e-08 -1.02584e-08
-1.11777e-07 -2.31405e-08 -1.04942e-08
3.81521e-08 -5.39852e-08 -1.30998e-09
3.18853e-08 -5.62961e-08 -2.70883e-09
2.15129e-07 1.77009e-08 -1.55468e-08
-1.10404e-07 -5.78679e-09 -8.71767e-09
-1.06385e-07 -4.02238e-09 -8.78265e-09
-1.06169e-07 -5.32483e-09 -8.53331e-09
-1.14001e-07 3.43476e-08 1.78054e-08
-1.08996e-07 3.57882e-08 1.75056e-08
8.7195e-08 5.75905e-08 -1.1198e-08
-1.1538e-07 2.79258e-08 -1.27486e-08
-1.19484e-07 2.75362e-08 -8.95546e-09
-1.28699e-07 -1.11437e-08 -8.43726e-09
-1.27582e-07 -1.03486e-08 -7.24692e-09
-1.29502e-07 -1.03801e-08 -8.26949e-09
-1.10747e-07 4.60408e-08 -3.6111e-08
-1.10847e-07 -1.00744e-08 -7.58216e-09
-1.32737e-07 1.01064e-08 -1.92677e-08
-1.33894e-07 1.09249e-08 -1.92404e-08
-1.12671e-07 -8.91102e-09 -8.66602e-09
-1.16254e-07 -9.73266e-09 -8.38859e-09
4.40971e-07 -2.90921e-10 -2.16768e-07
7.28174e-08 -1.24785e-07 7.33273e-07
2.01362e-07 -3.94537e-08 1.29288e-07
-6.77162e-08 -4.20303e-08 -8.28094e-09
-6.19634e-08 -4.1717e-08 -7.04713e-09
-7.13604e-08 -3.92809e-08 -7.661e-09
1.54339e-07 4.58509e-08 3.44713e-08
2.48052e-08 7.29245e-08 -1.62205e-10
-3.94428e-08 -2.32126e-08 -1.87403e-09
-3.0614e-08 -2.50714e-08 -1.5561e-09
-1.90135e-08 3.47587e-08 -4.25554e-09
-5.80156e-08 -4.62381e-08 -4.32615e-09
-1.23612e-07 2.55783e-08 3.76083e-09
-5.30817e-08 -4.86125e-08 -3.41727e-09
-5.41821e-08 -4.91998e-08 -4.12038e-09
2.58613e-08 9.52737e-08 -3.96634e-09
-1.06369e-07 3.44581e-08 -1.87931e-09
-3.8157e-08 -5.66994e-08 8.95187e-10
-3.02001e-08 -5.89031e-08 1.79159e-09
6.38474e-08 6.80462e-08 -4.27501e-09
1.41505e-08 9.15858e-08 -6.74701e-09
-1.21843e-07 -1.45793e-08 -8.51251e-09
9.14942e-08 6.84945e-08 6.85356e-09
9.43013e-08 6.76952e-08 1.00752e-08
7.89676e-08 -1.93552e-08 1.21009e-08
8.21984e-08 -2.38744e-08 1.65852e-08
-1.35878e-07 -1.30802e-09 -4.77972e-09
-1.35586e-07 -2.71673e-09 -5.97834e-09
-1.04519e-07 4.73091e-08 -3.33405e-08
-9.39387e-08 5.61971e-08 -3.40895e-08
-1.02186e-07 5.34475e-08 -3.59807e-08
-9.18764e-08 6.20732e-08 -3.63577e-08
-5.9324e-08 -4.70823e-08 -5.77313e-09
-5.63747e-08 -4.63881e-08 -3.76977e-09
-8.34538e-08 6.70082e-08 -3.32628e-08
-8.29981e-08 6.35259e-08 -3.22658e-08
-1.98657e-09 8.38441e-08 4.01213e-09
-3.31914e-08 -2.40708e-08 2.75588e-09
-3.45698e-08 -2.76518e-08 2.18411e-09
1.10433e-08 8.11396e-08 7.27325e-09
-1.32049e-07 1.62881e-08 -2.25665e-08
-1.28511e-07 1.80066e-08 -2.25148e-08
-8.93908e-08 -2.3602e-08 -2.29599e-09
-8.37676e-08 -2.56722e-08 -1.37523e-09
4.37741e-08 8.59634e-08 9.92848e-09
5.22772e-08 8.01549e-08 1.15035e-08
-8.83509e-08 -2.41175e-08 -3.38586e-09
-6.53174e-08 5.67802e-08 2.07039e-08
-7.60237e-08 5.08526e-08 1.80479e-08
1.7108e-07 2.30007e-08 4.74271e-08
-9.53589e-08 -2.83967e-08 -8.69357e-09
-9.03173e-08 -3.12978e-08 -1.00106e-08
8.18277e-11 7.25541e-08 5.29924e-09
5.98174e-09 7.10114e-08 2.13239e-09
-9.66424e-08 4.36131e-08 2.06203e-08
-1.02141e-07 3.82938e-08 1.6327e-08
1.59075e-07 3.94944e-08 2.93452e-09
1.54633e-07 4.12994e-08 1.1254e-10
-5.68259e-08 6.59646e-08 -2.58539e-08
1.65234e-08 9.27616e-08 -6.17829e-09
9.70127e-08 -2.12796e-08 -5.85908e-09
9.7146e-08 -2.09007e-08 -5.37314e-09
-5.24639e-08 -5.07394e-08 1.72996e-09
-5.38052e-08 -4.94094e-08 2.11196e-09
-5.716e-08 7.1318e-08 -1.96919e-08
-6.68038e-08 6.76178e-08 -2.18526e-08
7.4228e-08 2.59831e-08 -2.48546e-08
6.05153e-08 1.54111e-08 -1.45753e-08
-1.14367e-07 3.08153e-08 1.03979e-08
-1.13678e-07 2.97089e-08 6.74551e-09
-9.49358e-08 4.26945e-08 1.01589e-08
-9.50881e-08 4.33578e-08 6.91739e-09
1.86528e-07 3.39516e-08 3.17745e-08
1.84218e-07 3.39359e-08 2.64787e-08
-8.88867e-08 4.66558e-08 1.0987e-08
1.31827e-07 5.42849e-08 6.87826e-09
-6.14437e-08 -1.08912e-08 3.59676e-10
1.36755e-07 5.15579e-08 3.40154e-09
-5.37089e-08 -2.44974e-08 -4.75851e-10
-5.21476e-08 -2.63662e-08 -2.00797e-11
-1.05836e-07 -2.25507e-08 -7.4209e-09
1.39872e-07 5.1088e-08 4.85506e-09
1.34733e-07 5.17849e-08 5.71085e-09
2.14512e-08 7.39069e-08 5.77381e-11
1.30277e-07 5.36678e-08 8.49456e-09
2.92268e-08 7.02599e-08 -1.58273e-09
4.01463e-08 7.32457e-08 -4.93098e-09
1.47955e-07 4.29915e-08 -2.01213e-08
1.50827e-07 4.14163e-08 -2.23027e-08
2.67531e-07 1.26756e-09 4.92343e-08
2.81396e-07 1.9645e-09 6.45791e-08
3.74913e-07 1.15103e-08 1.42537e-07
-1.70067e-08 8.22106e-08 -1.85417e-08
-3.14061e-08 7.64436e-08 -2.0147e-08
8.64183e-08 -3.90155e-08 2.96438e-08
7.54608e-08 -4.20041e-08 3.0504e-08
-3.00296e-08 7.87502e-08 -2.12557e-08
-9.2191e-08 4.9247e-08 2.28513e-08
-8.45359e-08 4.95537e-08 2.06181e-08
-9.21809e-08 4.58094e-08 2.01497e-08
-4.7106e-08 6.51893e-08 1.6564e-08
-2.64543e-08 7.48274e-08 1.2101e-08
-6.75462e-08 6.05486e-08 1.91871e-08
-5.60628e-08 6.60283e-08 1.91764e-08
-1.22715e-07 2.32377e-08 1.13665e-08
-2.85419e-08 2.93962e-08 -1.41068e-09
-5.41869e-08 6.36299e-08 1.91195e-08
-5.66514e-08 5.88882e-08 1.98671e-08
4.64413e-08 7.63184e-08 2.57601e-09
4.77867e-08 7.85266e-08 1.70822e-09
-1.22657e-07 2.88442e-08 -2.61699e-08
-1.26999e-07 2.63211e-08 -2.15461e-08
1.53287e-07 4.46286e-08 2.07486e-08
1.51909e-07 4.42626e-08 2.08085e-08
1.5571e-07 4.3323e-08 2.23676e-08
-7.43381e-08 6.51739e-08 4.5849e-09
-7.35915e-08 6.6012e-08 1.61751e-09
-7.70875e-08 5.96261e-08 3.51147e-09
-1.04933e-07 3.36172e-08 2.28862e-09
-8.64672e-08 4.71995e-08 1.48774e-08
1.481e-07 4.9735e-08 3.15758e-08
1.48813e-07 5.37915e-08 3.80461e-08
1.97438e-08 8.23854e-08 -3.7066e-09
6.23088e-08 7.67369e-08 -2.29241e-08
2.13128e-08 8.82663e-08 -4.05375e-09
5.13446e-08 8.43453e-08 5.16649e-09
3.78865e-08 8.38019e-08 2.34576e-09
3.54219e-09 8.71729e-08 -1.03264e-08
1.10364e-08 8.4996e-08 -8.08697e-09
3.3116e-08 7.31606e-08 -4.7684e-09
3.29362e-08 7.43179e-08 -5.91396e-09
2.25329e-07 1.39314e-08 -5.63987e-09
2.25372e-07 1.35343e-08 -4.59422e-09
2.26127e-07 1.78191e-08 1.69725e-08
2.22438e-07 2.00663e-08 1.81955e-08
1.11335e-07 7.14869e-08 3.30027e-08
1.25133e-07 6.65083e-08 3.81605e-08
1.10436e-07 7.34365e-08 3.85919e-08
5.50177e-08 -4.10143e-08 2.17733e-08
1.13445e-07 5.73201e-08 -4.09931e-08
1.10902e-07 5.49619e-08 -3.68731e-08
4.67429e-08 -4.29687e-08 1.97029e-08
5.47318e-08 -4.29917e-08 2.05084e-08
2.35477e-07 1.1635e-08 -5.8401e-08
2.08709e-07 1.66993e-08 -5.93341e-08
1.82461e-07 1.91644e-08 -5.47499e-08
-8.4966e-08 4.7133e-08 1.79695e-08
-6.31179e-08 -4.52677e-08 -4.12434e-09
-6.4649e-08 -4.6091e-08 -5.70072e-09
-1.29015e-07 1.79519e-09 -2.40704e-10
-1.3032e-07 2.64479e-09 -2.8735e-10
-9.31813e-08 4.5243e-08 1.92695e-08
-8.41428e-08 4.71387e-08 2.01455e-08
-7.68738e-08 2.96407e-08 -1.36992e-08
-7.47399e-08 3.45049e-08 -1.4091e-08
7.70935e-08 5.57942e-08 3.55022e-08
-1.35485e-07 -3.69346e-09 -1.25131e-08
-1.36417e-07 -2.64656e-09 -1.25873e-08
-7.66407e-08 3.59887e-08 -1.53329e-08
2.01343e-07 2.46194e-08 2.55275e-09
1.98606e-07 2.6146e-08 4.45926e-09
-1.1091e-07 3.25875e-08 1.52548e-08
-1.10079e-07 3.2298e-08 1.57532e-08
-1.39776e-07 -1.47834e-09 -1.01328e-08
-1.40482e-07 -5.07288e-10 -1.00161e-08
2.53489e-08 9.01457e-08 8.67309e-09
2.50078e-08 9.29356e-08 1.24376e-08
-7.38093e-08 4.21906e-08 -1.57444e-08
-5.40258e-08 -3.95545e-08 -3.27183e-09
-7.66837e-08 4.31854e-08 -1.77374e-08
-1.29294e-07 1.24302e-08 4.89362e-09
-1.3199e-07 8.36808e-09 2.19879e-09
1.90709e-07 2.82521e-08 -3.94302e-09
1.93859e-07 2.65175e-08 -1.83717e-09
-1.28451e-07 1.10432e-08 4.77844e-09
-6.50932e-08 -4.90066e-08 -1.7459e-09
1.4659e-07 -1.3769e-08 1.19174e-08
1.4816e-07 -1.61406e-08 1.00934e-08
-5.94335e-08 -5.15532e-08 -2.28014e-09
-5.9655e-08 -5.1478e-08 -3.07339e-09
1.54899e-08 -5.12518e-08 1.39117e-08
1.22731e-08 -5.45891e-08 1.24608e-08
1.52728e-08 -5.49866e-08 1.48477e-08
-3.98882e-08 7.43835e-08 -2.27182e-08
-3.92241e-08 7.86635e-08 -2.41549e-08
-3.47926e-08 7.87398e-08 -2.08508e-08
-7.23702e-08 -3.97337e-08 -9.1361e-09
-3.23113e-08 8.05402e-08 -2.15299e-08
1.63289e-07 3.98503e-08 6.28297e-09
-1.00883e-07 3.70997e-08 6.89066e-09
-1.04529e-07 3.62018e-08 4.67476e-09
1.52193e-07 4.03998e-08 1.72293e-09
1.48086e-07 4.13402e-08 -2.60537e-09
1.54501e-07 3.95221e-08 -8.08048e-10
1.53052e-07 3.90714e-08 3.3588e-10
-8.61368e-08 5.26658e-08 -3.33351e-08
-9.42695e-08 4.94239e-08 -3.22805e-08
-9.36627e-08 4.79089e-08 -3.34907e-08
-9.40828e-08 -1.76484e-08 -4.3611e-09
-9.27361e-08 -1.90129e-08 -3.85789e-09
-9.17092e-08 -1.91006e-08 -4.41247e-09
1.42933e-07 4.76318e-08 8.19571e-09
1.40495e-07 4.97473e-08 7.26986e-09
1.84916e-07 3.06425e-08 -2.85894e-09
1.82317e-07 3.10661e-08 -3.18181e-10
-9.46539e-08 5.20284e-08 -3.4579e-08
-9.44159e-08 4.88115e-08 -3.48976e-08
-1.03064e-07 3.49313e-08 7.62854e-09
-9.89485e-08 3.76978e-08 1.29808e-08
7.67176e-08 6.44221e-08 -1.42441e-08
1.01506e-08 8.46221e-08 1.03645e-08
-1.04107e-07 3.65016e-08 1.17355e-08
-9.65444e-08 4.6739e-08 2.08787e-08
4.52864e-08 8.18182e-08 3.58184e-09
-6.34731e-06 1.44169e-06 1.60524e-05
-0.000116274 1.0898e-05 -9.79334e-05
-9.51611e-08 4.62644e-08 2.22514e-08
8.48879e-10 7.4115e-08 5.04778e-09
4.89123e-08 8.32995e-08 7.71479e-09
1.19921e-07 -2.44692e-08 2.03696e-08
-3.22474e-08 -2.2831e-08 -1.60203e-09
1.16824e-07 -2.08119e-08 1.54952e-08
5.93076e-08 8.29959e-08 9.40621e-09
4.77417e-08 8.02512e-08 6.0205e-09
1.72608e-07 3.75857e-08 2.19934e-08
1.72831e-07 3.70704e-08 2.35616e-08
1.6555e-07 4.01966e-08 2.34282e-08
1.71005e-07 3.67577e-08 2.02561e-08
1.31503e-07 5.14793e-08 9.46106e-09
1.34351e-07 5.15571e-08 1.13366e-08
1.71128e-07 3.883e-08 1.32785e-08
1.7534e-07 3.66045e-08 1.00817e-08
1.69617e-07 3.93993e-08 1.08574e-08
1.32354e-07 5.20379e-08 8.85485e-09
-9.97316e-08 4.04923e-08 1.62982e-08
-1.18739e-07 2.56894e-08 -1.00763e-08
-1.22036e-07 2.67442e-08 -1.3752e-08
6.88496e-08 6.39978e-08 -1.08758e-08
-1.22525e-07 1.87874e-08 -2.24199e-08
-1.23751e-07 1.93879e-08 -2.24426e-08
1.60691e-07 -2.17829e-08 1.34302e-08
1.74768e-07 -2.08696e-08 1.53302e-08
1.62325e-07 -2.02296e-08 1.98993e-08
-9.6668e-08 4.66287e-08 -3.08434e-08
-1.00955e-07 4.21512e-08 -3.03362e-08
-3.70345e-08 -4.3681e-08 -3.3203e-10
-3.80975e-08 -4.57891e-08 -7.86732e-10
-5.8425e-08 -9.02185e-09 -2.76124e-09
2.25919e-07 1.0871e-08 -6.72564e-09
-3.74939e-08 -3.98648e-08 9.80079e-10
2.23708e-07 1.23116e-08 -5.58398e-09
-9.56801e-08 4.65535e-08 -3.29875e-08
4.2392e-08 8.12322e-08 6.20796e-09
5.40887e-08 7.77708e-08 1.05501e-08
4.38933e-08 8.25974e-08 8.82158e-09
1.4235e-07 4.87781e-08 4.02299e-09
9.04837e-08 7.182e-08 2.29099e-08
1.45047e-07 4.84315e-08 5.11961e-09
1.37332e-07 4.4227e-08 -2.86432e-09
4.08021e-08 -3.36111e-08 -9.9369e-09
-8.62828e-08 -3.54508e-08 -8.80151e-09
-8.55112e-08 -3.49873e-08 -8.92153e-09
-4.65428e-08 6.32255e-08 1.60046e-08
-3.91476e-08 6.95937e-08 1.59587e-08
-3.97243e-08 6.57901e-08 1.56855e-08
1.3069e-07 5.29744e-08 -2.81422e-08
-1.83681e-08 8.1311e-08 -1.52622e-08
-1.73732e-08 8.1932e-08 -1.73602e-08
1.28576e-07 4.66009e-08 -2.04995e-08
6.36455e-08 7.08685e-08 -1.42375e-08
5.60752e-08 7.01191e-08 -1.0549e-08
4.94902e-08 7.40894e-08 -9.70801e-09
1.81485e-07 3.19491e-08 3.16189e-09
1.8376e-07 3.12714e-08 -1.25087e-09
1.23098e-07 5.50994e-08 1.05674e-08
1.10861e-07 5.87882e-08 1.2209e-08
1.11586e-07 5.95308e-08 1.43107e-08
4.03944e-08 -3.85615e-08 -7.00618e-09
4.81946e-08 -3.59378e-08 -6.72975e-09
4.58683e-08 -3.92079e-08 -7.58945e-09
3.22999e-08 -5.15676e-08 2.13588e-08
3.27978e-08 -4.89991e-08 1.95541e-08
3.96963e-08 -4.90396e-08 2.18168e-08
-6.97116e-08 5.64172e-08 1.81687e-08
-6.69117e-08 5.89486e-08 1.99404e-08
-6.69923e-08 6.28361e-08 1.89317e-08
1.39207e-07 4.38963e-08 -6.14958e-09