# vtk DataFile Version 2.0
S, Created by Mohamad Ibrahim Cheikh
ASCII
DATASET UNSTRUCTURED_GRID
POINTS 6172 double
-15.29 8.22277 -87.4515
-13.3662 5.88435 87.6784
57.5355 -76.6353 38.2851
60.382 -77.9901 34.8591
-223.305 39.7469 7.69303
-63.2863 85.1401 2.19517
-72.1747 -64.3756 54.4244
-70.1212 -67.1799 51.2725
-36.1044 31.6141 -81.1477
-129.874 -12.3138 -74.3459
-133.736 -10.6456 -73.7629
-110.318 38.2033 -69.2425
-115.21 35.9883 -69.4535
-10.5349 -6.48439 87.6833
18.4597 -7.99122 87.3981
15.362 -4.3548 87.7277
173.173 -16.5413 61.6345
172.474 -11.885 62.9347
-59.8398 85.4659 -1.08437
-16.635 3.32071 87.7445
-168.514 -29.0373 -58.5165
-165.376 -26.0118 -60.9837
-132.551 20.8091 -71.8324
-127.468 21.0251 -72.8881
-19.6355 0.489124 -87.73
-33.1121 -81.1064 -32.1172
-37.2278 -81.6943 -30.006
-33.3384 -1.6872 87.2071
41.0856 56.168 -66.2004
-152.457 57.3469 -40.1206
-157.285 54.533 -41.73
-162.183 -30.2348 60.0793
-156.584 -30.2272 61.875
-202.83 28.2886 -43.6687
-44.8726 78.0583 37.4751
-41.9578 76.7012 40.5634
-44.8066 74.5723 44.0133
-168.994 43.0999 48.8866
-170.775 38.8861 51.5875
-246.555 -17.0966 3.03277
69.5487 -69.0333 -48.8488
66.3014 -71.2946 -46.0748
-248.572 -12.8985 3.59029
-141.088 54.4435 -48.4028
-138.967 57.6501 -45.3443
-147.568 57.4627 -42.1419
-142.725 59.5124 -41.3319
-190.928 -49.2163 29.3045
-192.156 -45.9477 33.3497
-181.009 27.0098 54.8007
-177.308 30.6828 54.3471
-189.241 -2.45188 -57.9091
-194.107 -1.84375 -55.9262
-162.032 61.9858 -26.2186
-8.04901 -11.0447 87.2587
-225.565 -8.40983 -38.0007
-232.757 -33.2076 2.91502
-235.983 -30.4245 0.647865
-250.143 1.94759 8.91748
-250.352 -3.6469 7.56514
-207.271 -49.7132 -3.57988
-205.937 -49.8199 -8.34825
-240.046 6.53667 -25.4277
-228.194 -11.4604 -35.1763
-190.009 -34.8413 45.9341
-73.5582 -23.6085 -80.7725
-77.5762 -25.4989 -79.7309
-194.121 -35.7608 43.0303
-226.89 -16.8712 -34.0111
-221.72 -18.7719 -37.0535
-212.426 47.1098 0.190807
-215.164 45.45 3.20733
162.297 -23.7823 62.8774
-234.678 31.5651 -2.21623
-102.748 74.6887 29.5478
-107.237 74.311 28.5299
-29.3228 25.6565 83.5492
4.20421 19.1297 -85.883
-27.795 29.9694 82.166
-227.801 7.81803 36.4628
-230.638 4.07445 34.8548
156.817 2.37508 -68.7576
154.356 -2.317 -69.4379
-224.167 1.54502 39.8667
-221.109 -2.2726 41.8723
150.151 -12.5436 -69.4725
17.6316 -16.9508 86.1313
22.5915 -16.1416 86.145
146.268 -9.02511 -71.0158
160.803 -67.4006 5.95005
164.543 -66.5111 2.35432
-152.018 64.7959 26.7615
-226.559 12.7982 36
-203.676 -40.0485 32.5762
-201.32 -38.3266 36.2351
28.4864 87.0602 8.07297
-232.897 19.1869 -27.1129
25.279 86.6601 12.4812
-173.972 -62.6133 10.8664
-232.418 26.52 20.67
174.504 26.7313 -57.4564
-229.362 30.3064 19.6178
-245.289 -19.4024 -1.14252
-242.388 -23.4727 0.0626477
-23.6056 -6.98338 -87.3328
-238.744 19.0925 -20.027
-182.375 -59.1855 12.9993
-245.004 16.5944 -10.9315
-242.124 20.3335 -12.3758
-211.949 10.5036 -46.1933
-214.668 6.16242 -45.4329
-231.028 34.7638 0.951576
-227.397 37.5906 -0.41039
-179.23 -61.0633 9.07605
190.759 -1.33308 57.3333
186.72 -4.06698 58.8132
149.532 -34.29 -61.8924
151.841 -30.2353 -63.3016
10.7974 25.0378 -84.2783
158.188 -28.385 -62.2468
-208.816 -7.34641 -48.4927
210.394 -38.4587 -29.0768
213.776 -34.8009 -30.6235
-236.754 4.28611 29.3783
-103.555 79.3242 11.7805
-114.154 -60.2816 -50.1471
-109.324 -63.2771 -47.7155
132.664 19.5606 72.157
135.961 21.7649 70.761
-98.2543 80.0209 12.5987
-233.917 29.6268 12.9308
-236.989 25.8774 14.0776
-226.23 25.385 28.8719
2.57408 87.7758 -6.21323
7.37326 87.8349 -4.72974
-228.602 21.4071 29.7938
-34.9192 23.815 83.8305
-242.614 -21.3009 9.15668
-245.061 -18.0142 8.17969
152.045 -2.48094 70.0538
147.959 -4.95635 70.9872
-34.4371 69.0273 -53.2357
-39.6865 68.5664 -53.3837
35.8366 87.042 -3.2345
40.9443 86.8021 -2.03461
194.078 43.1084 -35.6952
195.88 39.4901 -38.5618
38.065 -86.7509 6.39484
42.6218 -86.4407 7.04267
174.766 57.5632 -26.2882
176.052 58.8814 -21.9627
195.091 19.6109 51.9582
196.184 15.091 52.9543
131.212 -72.0251 21.179
-203.832 -13.9083 -49.6374
-92.9081 81.0917 10.5515
-93.8483 81.4545 5.55556
-208.316 -13.2795 -47.484
147.92 -26.3978 -66.0933
-23.5491 -57.3805 -66.2086
-21.2234 -60.6839 -63.2955
-8.83642 -5.96956 -87.7428
-166.67 37.3774 54.2764
-100.468 -13.0632 79.6089
-103.395 -10.0428 79.5883
-103.352 -73.3505 -32.4953
192.759 -41.7468 -38.1074
188.824 -41.2918 -40.9122
28.4019 84.0166 -24.2168
24.5428 83.2358 -27.2408
-107.298 -71.1948 -35.5778
-220.696 32.0673 27.4322
-217.392 34.8128 27.3146
-218.025 -36.5716 24.2241
-216.438 -34.0112 29.1881
-219.165 -29.601 31.4168
0.210219 -74.6794 46.5508
3.82802 -76.5447 43.3949
62.181 -74.4059 41.646
110.832 6.34662 -78.7389
2.64031 -72.2343 50.2529
158.429 31.3932 -60.7082
160.679 27.6475 -61.796
-123.32 74.8949 16.5181
-123.713 72.4475 24.9311
-127.428 73.0895 20.3452
-28.3743 81.4704 -31.7492
-37.102 81.5243 -30.4836
93.4612 -74.0127 34.5932
20.55 20.0288 -85.3882
-33.6679 80.4577 -33.6419
-58.3445 79.7897 30.9973
-64.1215 79.5991 30.0767
-40.7804 86.5354 -7.21265
210.663 0.796104 -48.0628
209.277 -3.78302 -48.658
-61.4562 81.2975 25.929
-79.4377 -74.9352 36.8257
150.766 -64.6089 28.0501
155.025 -62.8095 29.2684
37.7858 -25.5752 -83.1571
-76.1561 -73.8417 39.7661
-47.9142 -33.6537 -79.5635
-43.0371 -31.326 -80.845
13.763 73.7682 -47.7395
16.3972 70.7113 -52.0672
-76.749 -70.73 44.9455
-165.338 -42.0307 -51.289
-160.404 -41.0249 -53.9525
-159.08 -37.0137 -57.2339
75.0807 -20.0106 81.5685
80.3639 -48.0016 68.1846
79.718 -17.0143 81.7097
5.46718 74.6645 -46.5355
0.453053 72.4033 -50.0173
5.6774 79.3222 -38.0531
9.58052 77.421 -41.6983
-102.134 8.27629 79.9899
-105.439 5.55292 79.6998
82.3484 -51.4208 65.3427
-3.12787 -29.3265 82.9624
87.8007 -52.222 63.8204
131.9 14.3499 73.5398
136.369 12.942 72.7992
-76.8802 -66.7988 -50.5796
-72.9164 -64.7173 -53.8955
-148.029 -17.0716 -69.0635
-153.09 -19.9162 -66.9179
-120.691 36.6892 67.9304
-118.84 40.9109 65.888
97.03 -75.458 29.9571
101.913 -74.3266 30.7892
241.229 21.1339 -13.1502
242.558 17.4982 -15.3191
-32.7955 79.9114 35.0211
61.0003 -70.7242 -47.8175
56.9994 -66.2804 -54.3428
61.5788 -67.9912 -51.5455
-97.9925 -64.8963 48.5472
-97.2304 -61.8644 52.5296
-162.015 40.5529 53.7197
-140.413 -72.8833 -4.26803
-138.472 -73.4606 0.02714
43.4842 -82.2905 27.2173
37.6617 -80.379 33.3101
38.3891 -81.9799 29.0322
-83 -64.9529 -51.7851
77.0182 -73.0406 -41.0223
-10.7276 -81.2108 -33.6855
-15.7291 -81.4076 -32.9623
72.6542 -74.6134 -39.1225
72.5635 -77.1911 -33.777
51.4687 85.1073 13.2826
46.7075 85.3145 14.0832
44.1317 84.7637 17.9072
159.957 -42.1057 53.2782
159.741 -38.5586 55.9747
156.338 -45.0107 52.2077
-66.9461 66.9158 -52.1303
-186.358 7.96452 58.5546
111.731 -17.0609 -76.9709
113.201 -12.1339 -77.6395
-13.0082 9.85695 87.3277
201.448 -34.7093 39.6342
-119.822 -74.079 22.3279
209.845 -30.7465 37.5159
205.34 -31.1072 40.1763
-236.409 6.73447 -29.2588
-171.009 -64.2043 6.43636
237.669 -19.9691 -20.7253
239.391 -15.7538 -21.8992
-200.33 26.0043 46.4154
-235.368 2.26599 -30.9266
52.4725 -76.6658 39.1058
-197.241 36.4116 -40.6837
-192.065 38.9912 -41.3202
49.5659 62.1217 59.8674
54.5745 63.2871 58.087
-2.79753 -82.0776 31.7223
2.92497 -83.0028 29.2146
-72.8739 -60.7356 -58.3525
-77.4673 -54.3748 -63.6604
-77.9254 -58.445 -59.8726
-81.5038 -52.509 -64.6028
196.666 -35.5202 41.7973
194.584 -32.6778 45.173
-78.2803 -46.383 -69.5872
-72.7999 -47.0415 -69.873
-42.0894 4.10875 -86.6616
51.2196 1.18621 86.1476
56.8051 -1.95824 85.7036
-40.8085 8.50807 -86.416
-27.4207 -79.0204 -37.5196
-27.3591 -76.5912 -42.2628
141.21 -61.796 -38.5223
149.706 -57.673 -40.9136
-104.562 15.6729 -78.4844
-101.346 19.3965 -78.1684
146.705 -60.5237 -38.0248
-165.634 -41.9406 51.246
-163.125 -46.7939 47.9218
35.9522 71.1417 -50.2455
105.462 -59.686 53.1026
108.843 -56.3741 55.817
-174.361 -4.52364 63.2569
-169.566 -0.132152 64.9907
-140.654 -58.6139 43.4316
-136.723 -61.8096 40.4347
-145.201 70.8162 12.1583
-150.409 69.0201 14.5083
-173.401 -38.204 -51.0219
-231.453 2.85555 -34.31
90.573 64.4709 -50.8246
94.8383 66.1362 -47.6322
230.399 -29.8644 -18.7901
226.779 -31.2208 -21.7442
-53.0612 -27.618 -81.465
-52.2288 -32.0538 -79.8911
18.7524 57.1884 66.5615
22.2981 54.3666 68.7561
-132.23 -69.4345 27.9677
-136.781 -69.599 24.6865
-184.907 -55.4808 21.9065
-189.815 -54.1078 20.1296
-58.5061 76.1323 -39.0999
-65.1373 74.8662 -40.2442
-192.959 -50.7528 24.6915
-186.79 57.3466 -13.5547
31.331 -18.8784 85.2492
-183.748 59.9902 -3.39462
53.2918 -15.9849 84.5031
57.9927 -14.1459 84.452
133.34 -74.2369 -7.49155
-179.911 61.0792 -7.10632
-182.192 59.4572 -12.0372
-170.094 6.06807 64.5371
-182.416 57.3815 -19.4269
-166.513 10.02 65.1845
-167.868 15.6247 63.6382
-96.8385 64.1979 49.7445
-91.0469 66.5444 47.9682
41.7876 81.5436 -29.6793
45.1711 82.403 -26.5318
48.6591 83.364 -22.4625
-181.85 -17.6396 -58.1733
-180.242 -23.883 -56.5347
77.6571 62.9161 55.2017
78.6025 59.6995 58.5111
-174.807 -23.8883 -58.5848
-126.055 -53.811 53.8791
-123.607 -49.9317 58.14
-130.584 -54.7668 51.5452
-115.176 -28.6162 72.808
-150.481 -17.4826 68.308
-115.907 -37.469 68.5221
-117.487 -32.6481 70.6271
-71.936 -69.6511 47.5308
16.7942 -2.18277 -87.7764
-148.77 -34.128 62.206
-144.643 -37.6626 61.3521
-183.169 15.6911 -58.225
-178.56 14.6948 -60.204
-111.558 -76.2502 -20.1552
-108.388 -77.6214 -16.7509
-107.514 65.9876 -44.4346
-112.424 66.8761 -41.5232
-103.254 67.7538 -42.9901
-230.396 -32.9809 12.5447
-233.03 -31.9428 8.67707
-226.602 -36.462 11.3085
-166.429 -64.4795 13.9734
-185.219 -51.0984 30.5424
-70.467 62.1424 -57.2222
-65.3222 62.7708 -57.2837
-176.597 2.4474 -62.6086
-87.0485 31.5363 76.3004
-171.422 2.20071 -64.3543
-149.501 15.4601 -69.0551
-149.526 10.3214 -70.0012
-172.572 -6.59618 -63.6738
-170.115 -3.36862 -64.7274
-123.527 11.8564 75.7316
-128.446 12.9767 74.5367
-40.9211 86.0845 11.3331
-38.8688 85.3465 16.5831
-43.0543 84.74 -18.3352
-48.7067 84.1066 -19.4841
-50.461 43.9647 -74.1577
-43.4991 50.5382 -70.4147
-45.9339 46.8088 -72.7641
[...]
POINT_DATA 6172
VECTORS F double
-5.37697e-09 6.27254e-08 6.01293e-09
-2.61293e-08 3.47628e-08 -2.8207e-09
-1.19676e-07 -1.51519e-08 -8.31046e-09
-1.20027e-07 -1.55596e-08 -9.35721e-09
1.0304e-07 7.09951e-08 -6.20244e-10
2.13194e-07 1.93385e-08 2.4465e-09
-1.14225e-07 2.73072e-08 1.37545e-08
-1.19858e-07 2.4062e-08 1.14586e-08
7.54646e-08 8.43583e-08 2.87541e-08
-7.20777e-09 8.28341e-08 -1.21782e-08
-8.21613e-09 8.29805e-08 -1.01521e-08
8.89497e-08 7.16054e-08 2.21566e-08
8.85445e-08 7.00804e-08 1.83308e-08
-4.4967e-08 2.58258e-08 1.24844e-09
-4.79809e-08 -1.41976e-09 1.11089e-09
-4.38639e-08 3.06686e-09 1.09268e-09
-3.53232e-08 -5.00999e-08 -1.29472e-09
-2.88123e-08 -4.91133e-08 3.92393e-10
2.18059e-07 1.87627e-08 5.56079e-09
-2.74075e-08 3.54685e-08 -1.97843e-09
-4.01102e-08 7.55589e-08 -2.33525e-08
-3.68346e-08 7.72399e-08 -2.07164e-08
5.71198e-08 7.69291e-08 9.38096e-09
5.87621e-08 8.04668e-08 1.06298e-08
-1.69166e-08 6.22205e-08 8.10438e-10
-1.33176e-07 1.5617e-08 -2.26282e-08
-1.3375e-07 1.54899e-08 -2.18566e-08
-3.12937e-08 4.58327e-08 -5.77904e-10
9.53698e-08 2.13227e-08 2.53377e-08
1.271e-07 5.02154e-08 1.26451e-08
1.23663e-07 5.30954e-08 1.23207e-08
-4.6222e-08 6.35912e-08 1.67258e-08
-4.52577e-08 6.6061e-08 1.82501e-08
7.31385e-08 7.44648e-08 6.64735e-09
1.97038e-07 2.27982e-08 -1.86024e-08
2.01162e-07 2.41758e-08 -2.02398e-08
1.87396e-07 2.85756e-08 -2.506e-08
9.43027e-08 5.59431e-08 -9.40974e-09
8.29588e-08 5.83762e-08 -1.03805e-08
-4.92036e-08 8.67212e-08 -8.62398e-10
-1.0532e-07 -7.57213e-09 -7.65747e-09
-1.08633e-07 -6.36931e-09 -9.28297e-09
-3.96341e-08 9.33513e-08 -5.78252e-10
1.21672e-07 5.56767e-08 1.92041e-08
1.31886e-07 5.23915e-08 1.71243e-08
1.30374e-07 5.32926e-08 1.67738e-08
1.32652e-07 5.22504e-08 1.91524e-08
-8.55478e-08 4.76166e-08 1.1732e-08
-7.71553e-08 5.01845e-08 1.47146e-08
6.15376e-08 6.74609e-08 -8.36417e-09
6.66028e-08 6.40896e-08 -9.57983e-09
1.1957e-08 8.45021e-08 -8.36179e-09
1.02682e-08 8.10679e-08 -7.03593e-09
1.3677e-07 4.79759e-08 9.94033e-09
-5.29513e-08 2.06395e-08 2.01446e-09
-8.39652e-09 8.51423e-08 -1.27409e-08
-7.59098e-08 6.50682e-08 -8.27121e-10
-7.29978e-08 6.92504e-08 -3.26662e-09
6.63803e-09 1.03002e-07 3.05996e-10
-1.2183e-08 1.0192e-07 -2.2373e-10
-9.09583e-08 4.70737e-08 -8.93861e-09
-9.17515e-08 4.83185e-08 -1.12476e-08
2.39909e-08 9.47264e-08 -3.37823e-09
-1.67639e-08 8.63805e-08 -1.48287e-08
-5.74005e-08 6.056e-08 1.68652e-08
-4.5295e-08 8.91983e-08 -2.10211e-08
-4.51137e-08 8.50993e-08 -2.18418e-08
-5.78723e-08 5.71598e-08 1.55395e-08
-3.05238e-08 8.09837e-08 -1.5242e-08
-3.02869e-08 7.94611e-08 -1.80683e-08
1.16068e-07 6.40755e-08 2.1197e-10
1.1243e-07 6.52567e-08 -1.31469e-09
-4.58906e-08 -4.57092e-08 -2.78667e-09
8.85389e-08 8.07223e-08 1.85391e-09
1.7131e-07 3.08289e-08 -4.99425e-09
1.69181e-07 3.09055e-08 -2.64374e-09
2.03456e-08 5.82473e-08 -1.70125e-08
7.33822e-09 4.85481e-08 1.08577e-08
3.30455e-08 5.4486e-08 -1.85047e-08
2.27775e-08 8.48298e-08 -7.65935e-10
1.42134e-08 8.76004e-08 1.27481e-09
-7.64575e-09 -3.54792e-08 -3.36053e-09
-1.62093e-08 -3.20003e-08 -3.34369e-09
6.43545e-09 8.39966e-08 1.17516e-09
9.27594e-10 8.03479e-08 4.96071e-09
-2.70153e-08 -3.22283e-08 -1.32957e-09
-5.98022e-08 -1.89295e-09 1.12627e-09
-5.85708e-08 -4.40705e-09 1.05479e-09
-2.47326e-08 -2.92474e-08 -2.51979e-09
-9.75066e-08 -2.90518e-08 -6.46624e-09
-9.56264e-08 -2.91574e-08 -5.47251e-09
1.44262e-07 4.13613e-08 1.83873e-10
3.79998e-08 8.29272e-08 -2.02117e-10
-7.18902e-08 5.60028e-08 1.38187e-08
-6.85062e-08 5.67529e-08 1.34297e-08
3.60961e-07 -1.31523e-08 -1.54295e-08
5.71397e-08 8.67399e-08 1.29046e-09
2.98487e-07 -9.56227e-09 -7.88422e-09
-1.01208e-07 3.47106e-08 1.6257e-09
7.31555e-08 8.21181e-08 -4.65024e-09
2.9874e-08 -3.95658e-08 -7.29953e-09
8.1766e-08 7.73503e-08 -2.45371e-09
-5.4475e-08 8.45607e-08 -4.15197e-09
-6.16091e-08 7.78827e-08 -2.84959e-09
-2.74556e-08 6.15115e-08 -4.01008e-09
5.77697e-08 8.93793e-08 8.92098e-10
-9.824e-08 3.79926e-08 4.23797e-09
5.32729e-08 9.62629e-08 -5.24719e-11
6.21879e-08 9.18633e-08 1.97305e-09
3.60527e-08 7.95625e-08 -2.16149e-09
2.46362e-08 8.50136e-08 -2.72058e-09
9.53449e-08 7.76046e-08 -1.05397e-09
1.00057e-07 7.41162e-08 1.06997e-09
-1.01757e-07 3.65212e-08 -3.04761e-10
-1.52703e-08 -5.27897e-08 4.99303e-09
-1.71116e-08 -5.25434e-08 3.0178e-09
-5.49265e-08 -2.69717e-08 -1.30381e-09
-4.82155e-08 -2.94805e-08 -7.87024e-11
1.92368e-08 4.31502e-08 1.3121e-08
-4.72872e-08 -2.89543e-08 -1.50932e-09
-1.47979e-09 8.29649e-08 -1.17888e-08
-6.09666e-08 -4.08693e-08 4.65286e-11
-5.6321e-08 -4.35081e-08 1.30738e-09
1.38147e-08 9.08667e-08 3.73796e-10
1.84494e-07 2.9277e-08 1.41773e-09
-9.45543e-08 5.37929e-08 -3.83122e-08
-9.82435e-08 4.7647e-08 -3.56283e-08
7.33322e-09 -5.20763e-08 1.24664e-08
9.44894e-09 -5.27837e-08 1.40126e-08
1.86822e-07 2.83221e-08 -1.50932e-09
8.27439e-08 8.07646e-08 -1.78746e-09
7.45156e-08 8.56096e-08 -3.78569e-09
6.7722e-08 7.77717e-08 -3.41147e-09
2.78734e-07 9.13808e-11 1.54528e-08
2.88009e-07 -2.52706e-09 8.06417e-09
5.77927e-08 8.21063e-08 -4.70416e-09
1.94443e-08 5.83038e-08 -1.55715e-08
-5.63608e-08 7.95806e-08 2.29662e-09
-5.10255e-08 8.56635e-08 1.49683e-09
-2.10859e-08 -5.11983e-08 3.78987e-09
-2.25312e-08 -5.07854e-08 2.20378e-09
1.72176e-07 4.08998e-08 3.93964e-08
1.70874e-07 4.1354e-08 3.75632e-08
5.96607e-07 -2.76038e-08 6.97436e-08
3.85478e-07 -2.14831e-08 -4.41589e-08
5.36322e-08 -3.48684e-08 -6.40878e-09
4.80838e-08 -3.72375e-08 -8.23069e-09
-1.32025e-07 -7.85796e-09 -1.03836e-08
-1.31211e-07 -8.76277e-09 -1.03326e-08
7.08442e-08 -2.76779e-08 -2.94436e-09
7.25211e-08 -2.75225e-08 -2.61543e-09
1.67732e-08 -4.99949e-08 1.11594e-08
9.29473e-09 -5.26207e-08 1.07802e-08
-1.04721e-07 -2.61308e-08 -9.43357e-09
-1.38619e-08 8.11971e-08 -1.57823e-08
1.90418e-07 2.6484e-08 1.73807e-09
1.9098e-07 2.69079e-08 4.6361e-10
-1.51585e-08 7.98546e-08 -1.41908e-08
-4.55169e-08 -2.68742e-08 -1.73834e-09
-1.03321e-07 3.27344e-08 -2.38705e-08
-1.08093e-07 2.8886e-08 -2.32568e-08
-3.18405e-08 5.02922e-08 -3.02903e-09
8.33067e-08 5.8538e-08 -8.99246e-09
-2.6297e-08 7.38508e-08 8.05521e-09
-2.27435e-08 7.87807e-08 6.32353e-09
-1.17768e-07 3.37143e-08 -3.02439e-08
-6.28049e-08 -3.55519e-08 5.26639e-11
-6.34109e-08 -3.53909e-08 -1.11573e-10
3.02271e-07 4.73789e-09 5.98886e-08
2.84468e-07 9.75683e-09 6.12101e-08
-1.13485e-07 3.81961e-08 -3.45318e-08
8.14962e-08 7.27875e-08 -4.81469e-09
8.6267e-08 6.98237e-08 -4.93204e-09
-7.16498e-08 5.88214e-08 9.852e-09
-6.55845e-08 5.96385e-08 9.95219e-09
-5.80144e-08 6.54268e-08 1.20964e-08
-1.26597e-07 -1.11132e-09 -1.71278e-09
-1.27732e-07 -2.67666e-09 -3.34182e-09
-1.16938e-07 -1.7298e-08 -9.52896e-09
-8.86025e-09 -2.64809e-08 -3.66142e-09
-1.23913e-07 -1.75922e-09 -1.73161e-09
3.20639e-08 -3.48594e-08 -7.78185e-09
2.75662e-08 -3.80803e-08 -8.26181e-09
1.70322e-07 3.40106e-08 1.4733e-09
1.62989e-07 3.47297e-08 -1.90115e-09
1.62134e-07 3.54681e-08 -3.09058e-09
2.10824e-07 2.16676e-08 3.25339e-08
2.05493e-07 2.24394e-08 2.93925e-08
-1.11833e-07 -2.17286e-08 -9.49747e-09
7.38727e-09 3.33004e-08 8.02867e-09
2.08516e-07 2.32277e-08 3.00041e-08
1.9558e-07 2.32435e-08 -1.47608e-08
1.92849e-07 2.25137e-08 -9.2473e-09
2.33638e-07 1.41443e-08 7.97394e-09
-3.07986e-09 -4.53086e-08 -2.40329e-09
-1.10938e-08 -4.34313e-08 -2.46515e-09
2.02749e-07 2.07006e-08 -6.07086e-09
-1.26177e-07 1.93547e-08 6.06112e-09
-9.46156e-08 -3.06167e-08 -8.25912e-09
-9.32397e-08 -3.2068e-08 -8.35405e-09
-6.03389e-08 7.3743e-09 -5.62475e-09
-1.26773e-07 2.04623e-08 8.27257e-09
-6.63532e-08 6.26305e-08 -2.15993e-08
-6.52072e-08 6.35089e-08 -2.03588e-08
1.95489e-07 3.70342e-08 6.4124e-08
1.73343e-07 3.38425e-08 5.26422e-08
-1.21182e-07 2.19455e-08 9.20066e-09
-6.17677e-08 6.2969e-08 -2.72243e-08
-6.15702e-08 6.68393e-08 -2.84127e-08
-5.27466e-08 6.81042e-08 -2.60945e-08
-5.33295e-08 -3.14996e-08 -1.71766e-09
-8.62506e-08 -2.62971e-08 -6.06704e-09
-5.0086e-08 -3.45801e-08 -1.21796e-09
2.14772e-07 3.96451e-08 6.67014e-08
2.13248e-07 4.18328e-08 6.07945e-08
2.26177e-07 2.23772e-08 5.0785e-08
2.38338e-07 2.82756e-08 5.9208e-08
1.58118e-08 7.77065e-08 -5.56823e-09
1.22184e-08 7.83779e-08 -3.48177e-09
-8.98432e-08 -2.76799e-08 -7.92022e-09
-7.71358e-08 1.14457e-08 3.68992e-09
-8.88646e-08 -2.7461e-08 -7.50259e-09
-2.33732e-09 -5.17549e-08 1.06122e-08
-1.34704e-09 -5.03078e-08 9.2525e-09
-1.09955e-07 4.13175e-08 -3.41048e-08
-1.10416e-07 4.4149e-08 -3.47247e-08
-1.87445e-08 8.2432e-08 -1.54573e-08
-1.92158e-08 7.80244e-08 -1.78397e-08
8.01002e-08 6.09388e-08 -1.54896e-08
9.3901e-08 5.68844e-08 -1.45848e-08
-1.1208e-07 -2.17883e-08 -1.04366e-08
-1.10748e-07 -2.30079e-08 -1.0662e-08
3.77804e-08 -5.35338e-08 -1.18528e-09
3.1552e-08 -5.581e-08 -2.58531e-09
2.14543e-07 1.75395e-08 -1.54254e-08
-1.09248e-07 -5.43069e-09 -9.03049e-09
-1.05241e-07 -3.63328e-09 -9.08322e-09
-1.05042e-07 -4.95445e-09 -8.82848e-09
-1.1241e-07 3.39292e-08 1.75761e-08
-1.07439e-07 3.53501e-08 1.72847e-08
8.64568e-08 5.66749e-08 -1.08602e-08
-1.13668e-07 2.7565e-08 -1.28864e-08
-1.17755e-07 2.7172e-08 -9.11524e-09
-1.27414e-07 -1.11001e-08 -8.63815e-09
-1.26297e-07 -1.03237e-08 -7.42896e-09
-1.282e-07 -1.03413e-08 -8.44703e-09
-1.09179e-07 4.59227e-08 -3.61758e-08
-1.09728e-07 -9.72574e-09 -7.90525e-09
-1.31236e-07 1.02123e-08 -1.95036e-08
-1.32383e-07 1.10142e-08 -1.9468e-08
-1.11526e-07 -8.58997e-09 -8.97451e-09
-1.15093e-07 -9.43229e-09 -8.71581e-09
-2.67938e-08 -3.50523e-08 2.44279e-07
1.53922e-07 3.25376e-08 -2.60275e-07
2.82095e-07 -1.05525e-08 -3.57135e-08
-6.71594e-08 -4.18417e-08 -8.38134e-09
-6.14556e-08 -4.15489e-08 -7.14905e-09
-7.0764e-08 -3.91145e-08 -7.77872e-09
1.5266e-07 4.50029e-08 3.37648e-08
2.4888e-08 7.18336e-08 -7.29745e-11
-3.89761e-08 -2.25094e-08 -1.93761e-09
-3.02392e-08 -2.43597e-08 -1.59089e-09
-1.83907e-08 3.4571e-08 -4.23748e-09
-5.75781e-08 -4.59903e-08 -4.44601e-09
-1.219e-07 2.52103e-08 3.55173e-09
-5.26971e-08 -4.83377e-08 -3.52769e-09
-5.37866e-08 -4.89266e-08 -4.22578e-09
2.58776e-08 9.41728e-08 -3.92403e-09
-1.04741e-07 3.39522e-08 -2.02764e-09
-3.79176e-08 -5.61048e-08 8.21224e-10
-3.00388e-08 -5.82964e-08 1.7338e-09
6.33508e-08 6.70414e-08 -4.08456e-09
1.42958e-08 9.05525e-08 -6.6861e-09
-1.20645e-07 -1.45257e-08 -8.65781e-09
9.06349e-08 6.77457e-08 6.8344e-09
9.34196e-08 6.69607e-08 1.00228e-08
7.80875e-08 -1.88362e-08 1.16303e-08
8.13605e-08 -2.34357e-08 1.61751e-08
-1.34428e-07 -1.34872e-09 -4.94103e-09
-1.34152e-07 -2.74766e-09 -6.16203e-09
-1.03016e-07 4.72208e-08 -3.33984e-08
-9.24865e-08 5.60731e-08 -3.41153e-08
-1.00683e-07 5.33335e-08 -3.60185e-08
-9.04195e-08 6.19274e-08 -3.63683e-08
-5.88737e-08 -4.68307e-08 -5.88262e-09
-5.59451e-08 -4.61578e-08 -3.88619e-09
-8.20663e-08 6.68589e-08 -3.32619e-08
-8.16171e-08 6.33929e-08 -3.22679e-08
-1.2364e-09 8.35518e-08 4.03482e-09
-3.28289e-08 -2.38571e-08 2.71819e-09
-3.42208e-08 -2.74451e-08 2.14988e-09
1.16808e-08 8.08176e-08 7.28151e-09
-1.30508e-07 1.63605e-08 -2.27797e-08
-1.26996e-07 1.80879e-08 -2.27148e-08
-8.85719e-08 -2.31697e-08 -2.58216e-09
-8.30064e-08 -2.5213e-08 -1.6446e-09
4.38672e-08 8.52182e-08 9.86242e-09
5.22697e-08 7.94467e-08 1.14168e-08
-8.75418e-08 -2.36847e-08 -3.65211e-09
-6.40752e-08 5.59653e-08 2.04476e-08
-7.46815e-08 5.01152e-08 1.78122e-08
1.72227e-07 2.23101e-08 4.66736e-08
-9.44863e-08 -2.8281e-08 -8.81315e-09
-8.95053e-08 -3.11621e-08 -1.01046e-08
5.22144e-10 7.14938e-08 5.28897e-09
6.36013e-09 6.99805e-08 2.17399e-09
-9.50868e-08 4.30202e-08 2.03575e-08
-1.00553e-07 3.77546e-08 1.60862e-08
1.57253e-07 3.89432e-08 3.09901e-09
1.52893e-07 4.07195e-08 3.45534e-10
-5.56943e-08 6.53463e-08 -2.57561e-08
1.66565e-08 9.17084e-08 -6.1244e-09
9.6094e-08 -2.06537e-08 -5.23344e-09
9.63736e-08 -2.04061e-08 -4.84074e-09
-5.20854e-08 -5.02008e-08 1.59651e-09
-5.34115e-08 -4.88694e-08 1.96737e-09
-5.6025e-08 7.12303e-08 -1.96806e-08
-6.56114e-08 6.75676e-08 -2.1858e-08
7.44516e-08 2.66497e-08 -2.54651e-08
6.04848e-08 1.59466e-08 -1.50109e-08
-1.12683e-07 3.03671e-08 1.01658e-08
-1.11994e-07 2.92618e-08 6.52708e-09
-9.34424e-08 4.2056e-08 9.9481e-09
-9.36027e-08 4.27094e-08 6.73957e-09
1.83659e-07 3.31846e-08 3.09694e-08
1.81263e-07 3.32048e-08 2.58521e-08
-8.74689e-08 4.59585e-08 1.0779e-08
1.3039e-07 5.36387e-08 6.94555e-09
-6.07569e-08 -1.07747e-08 3.47736e-10
1.35252e-07 5.09192e-08 3.52576e-09
-5.31642e-08 -2.43275e-08 -4.97013e-10
-5.16145e-08 -2.61875e-08 -4.70967e-11
-1.04882e-07 -2.22881e-08 -7.68627e-09
1.38334e-07 5.04641e-08 4.96203e-09
1.33263e-07 5.11688e-08 5.79847e-09
2.16344e-08 7.28149e-08 1.34617e-10
1.28878e-07 5.30499e-08 8.53509e-09
2.93137e-08 6.92237e-08 -1.4731e-09
4.00774e-08 7.21532e-08 -4.77211e-09
1.46099e-07 4.20417e-08 -1.94361e-08
1.48933e-07 4.04046e-08 -2.14422e-08
2.64618e-07 2.31537e-10 4.62931e-08
2.71702e-07 3.57806e-10 5.77714e-08
2.98882e-07 -1.1212e-08 3.74988e-08
-1.63427e-08 8.13963e-08 -1.84268e-08
-3.05682e-08 7.57122e-08 -2.0053e-08
8.56065e-08 -3.88294e-08 2.95114e-08
7.47603e-08 -4.17841e-08 3.03369e-08
-2.91909e-08 7.80016e-08 -2.11419e-08
-9.06963e-08 4.86364e-08 2.25961e-08
-8.31027e-08 4.89284e-08 2.039e-08
-9.06836e-08 4.5209e-08 1.99079e-08
-4.59995e-08 6.44123e-08 1.64075e-08
-2.56135e-08 7.38146e-08 1.19837e-08
-6.62729e-08 5.98414e-08 1.89975e-08
-5.48716e-08 6.52511e-08 1.89878e-08
-1.21135e-07 2.29417e-08 1.11731e-08
-2.78084e-08 2.98962e-08 -1.39483e-09
-5.30471e-08 6.2762e-08 1.89009e-08
-5.54787e-08 5.80774e-08 1.9639e-08
4.62441e-08 7.55296e-08 2.54352e-09
4.75852e-08 7.77224e-08 1.69167e-09
-1.20932e-07 2.86083e-08 -2.62803e-08
-1.2527e-07 2.60943e-08 -2.1679e-08
1.5154e-07 4.40473e-08 2.05212e-08
1.50214e-07 4.36991e-08 2.05876e-08
1.53928e-07 4.27113e-08 2.20513e-08
-7.31859e-08 6.42957e-08 4.47548e-09
-7.24681e-08 6.51427e-08 1.53583e-09
-7.5898e-08 5.88053e-08 3.40595e-09
-1.03312e-07 3.3105e-08 2.11323e-09
-8.50571e-08 4.64975e-08 1.46404e-08
1.46576e-07 4.89352e-08 3.10438e-08
1.47253e-07 5.28476e-08 3.73517e-08
1.99592e-08 8.15698e-08 -3.70403e-09
6.21237e-08 7.55071e-08 -2.25311e-08
2.15195e-08 8.73805e-08 -4.02989e-09
5.12188e-08 8.35024e-08 5.11868e-09
3.7958e-08 8.29992e-08 2.31114e-09
3.99948e-09 8.63045e-08 -1.02677e-08
1.13942e-08 8.41738e-08 -8.04699e-09
3.32714e-08 7.20926e-08 -4.64241e-09
3.30899e-08 7.32305e-08 -5.76801e-09
2.23762e-07 1.38187e-08 -6.05064e-09
2.23842e-07 1.33553e-08 -4.50234e-09
2.24162e-07 1.75571e-08 1.67017e-08
2.19684e-07 1.97674e-08 1.80957e-08
1.10528e-07 7.04886e-08 3.25814e-08
1.24065e-07 6.55104e-08 3.7635e-08
1.09634e-07 7.23721e-08 3.80834e-08
5.45555e-08 -4.09222e-08 2.18316e-08
1.12342e-07 5.57693e-08 -3.98438e-08
1.09981e-07 5.35741e-08 -3.59145e-08
4.63386e-08 -4.28659e-08 1.97363e-08
5.42707e-08 -4.28846e-08 2.05585e-08
2.09861e-07 1.909e-08 -7.51882e-08
2.14429e-07 2.08209e-08 -6.97433e-08
1.75641e-07 2.68233e-08 -6.99419e-08
-8.35351e-08 4.646e-08 1.77291e-08
-6.26374e-08 -4.49957e-08 -4.25565e-09
-6.41538e-08 -4.58188e-08 -5.82187e-09
-1.27609e-07 1.71773e-09 -3.70778e-10
-1.28884e-07 2.55014e-09 -4.41684e-10
-9.16646e-08 4.46109e-08 1.90117e-08
-8.27125e-08 4.64771e-08 1.98862e-08
-7.57733e-08 2.99383e-08 -1.38156e-08
-7.364e-08 3.47864e-08 -1.41932e-08
7.83718e-08 5.57246e-08 3.55346e-08
-1.34076e-07 -3.58824e-09 -1.27747e-08
-1.35e-07 -2.54723e-09 -1.2853e-08
-7.55157e-08 3.62352e-08 -1.54336e-08
1.98401e-07 2.41864e-08 2.74842e-09
1.95753e-07 2.56987e-08 4.59208e-09
-1.09422e-07 3.22221e-08 1.50756e-08
-1.08597e-07 3.19454e-08 1.55758e-08
-1.38286e-07 -1.46581e-09 -1.03536e-08
-1.38984e-07 -5.07828e-10 -1.02235e-08
2.59063e-08 8.96076e-08 8.65836e-09
2.55536e-08 9.2353e-08 1.24083e-08
-7.26872e-08 4.24136e-08 -1.58282e-08
-5.35475e-08 -3.93953e-08 -3.32738e-09
-7.55219e-08 4.3376e-08 -1.78221e-08
-1.27792e-07 1.22524e-08 4.74009e-09
-1.30497e-07 8.22416e-09 2.04049e-09
1.88064e-07 2.77283e-08 -3.59189e-09
1.91115e-07 2.60167e-08 -1.51736e-09
-1.26954e-07 1.08776e-08 4.62269e-09
-6.46095e-08 -4.86215e-08 -1.89209e-09
1.44635e-07 -1.3219e-08 1.27589e-08
1.46439e-07 -1.57736e-08 1.05691e-08
-5.9008e-08 -5.1178e-08 -2.40436e-09
-5.92291e-08 -5.10867e-08 -3.19181e-09
1.53335e-08 -5.11177e-08 1.38646e-08
1.21402e-08 -5.44246e-08 1.24033e-08
1.51184e-08 -5.48174e-08 1.47821e-08
-3.88575e-08 7.38444e-08 -2.26401e-08
-3.81984e-08 7.81112e-08 -2.4057e-08
-3.37999e-08 7.81889e-08 -2.07726e-08
-7.17647e-08 -3.95593e-08 -9.23953e-09
-3.13623e-08 7.99264e-08 -2.14335e-08
1.61437e-07 3.93669e-08 6.36993e-09
-9.9311e-08 3.6535e-08 6.69536e-09
-1.02917e-07 3.56564e-08 4.4864e-09
1.50474e-07 3.98129e-08 1.92961e-09
1.46436e-07 4.07047e-08 -2.30923e-09
1.52746e-07 3.89327e-08 -5.39126e-10
1.51314e-07 3.84743e-08 5.81613e-10
-8.46473e-08 5.22859e-08 -3.32941e-08
-9.27164e-08 4.9066e-08 -3.22654e-08
-9.21072e-08 4.75785e-08 -3.34838e-08
-9.31765e-08 -1.72222e-08 -4.65308e-09
-9.18473e-08 -1.85621e-08 -4.15265e-09
-9.08376e-08 -1.86708e-08 -4.69475e-09
1.41393e-07 4.70846e-08 8.24966e-09
1.38977e-07 4.91763e-08 7.33944e-09
1.82441e-07 3.00966e-08 -2.52325e-09
1.79926e-07 3.05293e-08 -2.87087e-11
-9.31039e-08 5.17029e-08 -3.4564e-08
-9.2856e-08 4.8526e-08 -3.49071e-08
-1.01457e-07 3.43972e-08 7.42612e-09
-9.73771e-08 3.71324e-08 1.27527e-08
7.62483e-08 6.33809e-08 -1.3915e-08
1.07953e-08 8.4238e-08 1.03654e-08
-1.02486e-07 3.59559e-08 1.15037e-08
-9.50389e-08 4.61787e-08 2.06512e-08
4.51943e-08 8.09892e-08 3.53897e-09
-1.23434e-05 3.29617e-07 5.66919e-06
-0.000232279 1.90545e-05 -0.000104316
-9.36616e-08 4.57189e-08 2.20144e-08
1.35566e-09 7.30697e-08 5.03449e-09
4.88721e-08 8.24875e-08 7.63793e-09
1.18772e-07 -2.39799e-08 1.97084e-08
-3.18448e-08 -2.21082e-08 -1.6417e-09
1.15788e-07 -2.03683e-08 1.4917e-08
5.90927e-08 8.21418e-08 9.31533e-09
4.77097e-08 7.94759e-08 5.95179e-09
1.70352e-07 3.69885e-08 2.16543e-08
1.70582e-07 3.64725e-08 2.31766e-08
1.63458e-07 3.96478e-08 2.31945e-08
1.68824e-07 3.62115e-08 1.99876e-08
1.30132e-07 5.09239e-08 9.47609e-09
1.32931e-07 5.09839e-08 1.13308e-08
1.6919e-07 3.83566e-08 1.32352e-08
1.73304e-07 3.61546e-08 1.0104e-08
1.67713e-07 3.89264e-08 1.08511e-08
1.30953e-07 5.14624e-08 8.88483e-09
-9.815e-08 3.9908e-08 1.60521e-08
-1.17012e-07 2.53488e-08 -1.02423e-08
-1.20297e-07 2.64213e-08 -1.39018e-08
6.83634e-08 6.30093e-08 -1.05795e-08
-1.2108e-07 1.89331e-08 -2.26315e-08
-1.22292e-07 1.95078e-08 -2.2644e-08
1.59547e-07 -2.16333e-08 1.3785e-08
1.7314e-07 -2.06552e-08 1.5716e-08
1.61142e-07 -2.01004e-08 2.0173e-08
-9.50964e-08 4.6251e-08 -3.08368e-08
-9.93394e-08 4.18181e-08 -3.03577e-08
-3.6723e-08 -4.3518e-08 -3.88975e-10
-3.77754e-08 -4.55888e-08 -8.39002e-10
-5.77198e-08 -8.38518e-09 -2.9154e-09
2.28568e-07 1.12335e-08 -8.02789e-09
-3.71549e-08 -3.96947e-08 9.27841e-10
2.242e-07 1.21855e-08 -5.2993e-09
-9.4111e-08 4.61925e-08 -3.29707e-08
4.24513e-08 8.04898e-08 6.15084e-09
5.40067e-08 7.70417e-08 1.04556e-08
4.3948e-08 8.18251e-08 8.74173e-09
1.40787e-07 4.81827e-08 4.1417e-09
8.99148e-08 7.10203e-08 2.26796e-08
1.43455e-07 4.78488e-08 5.22574e-09
1.35839e-07 4.353e-08 -2.5695e-09
4.05365e-08 -3.30339e-08 -9.61248e-09
-8.55467e-08 -3.52737e-08 -8.94049e-09
-8.47882e-08 -3.48101e-08 -9.06756e-09
-4.54854e-08 6.23538e-08 1.58304e-08
-3.81579e-08 6.86473e-08 1.57895e-08
-3.87373e-08 6.48747e-08 1.55218e-08
1.29227e-07 5.18646e-08 -2.73918e-08
-1.75401e-08 8.07155e-08 -1.51979e-08
-1.65451e-08 8.13611e-08 -1.72803e-08
1.27202e-07 4.56062e-08 -1.98474e-08
6.33712e-08 6.97839e-08 -1.39545e-08
5.59137e-08 6.90588e-08 -1.03255e-08
4.94405e-08 7.29635e-08 -9.49608e-09
1.79152e-07 3.14283e-08 3.39683e-09
1.81361e-07 3.07463e-08 -9.2746e-10
1.21852e-07 5.45126e-08 1.05466e-08
1.09796e-07 5.81796e-08 1.21552e-08
1.10506e-07 5.89015e-08 1.42327e-08
4.00746e-08 -3.80868e-08 -6.76748e-09
4.78188e-08 -3.55061e-08 -6.46254e-09
4.54999e-08 -3.87494e-08 -7.33504e-09
3.2001e-08 -5.14312e-08 2.13082e-08
3.24932e-08 -4.88883e-08 1.95276e-08
3.93362e-08 -4.89255e-08 2.17892e-08
-6.84314e-08 5.57638e-08 1.79853e-08
-6.56395e-08 5.82687e-08 1.97465e-08
-6.57219e-08 6.21332e-08 1.87491e-08
1.37698e-07 4.31907e-08 -5.78132e-09