# vtk DataFile Version 2.0
S, Created by Mohamad Ibrahim Cheikh
ASCII
DATASET UNSTRUCTURED_GRID
POINTS 6172 double
-15.3847 9.23736 -87.3481
-13.726 6.50258 87.6279
55.6051 -76.8617 38.1802
58.4449 -78.225 34.7368
-221.6 40.8984 7.69416
-59.7479 85.4512 2.24552
-73.9967 -63.9144 54.6679
-72.0393 -66.7732 51.4779
-34.7727 33.0232 -80.6563
-129.923 -10.925 -74.5522
-133.803 -9.25621 -73.9352
-108.785 39.3881 -68.8746
-113.684 37.1478 -69.1501
-11.2085 -6.01532 87.7065
17.7223 -7.95678 87.4199
14.6952 -4.2451 87.747
172.56 -17.3144 61.6327
171.964 -12.6429 62.9579
-56.2222 85.7674 -0.982419
-17.0128 3.94622 87.7097
-169.112 -27.7814 -58.9137
-165.919 -24.7264 -61.3369
-131.545 22.0833 -71.6783
-126.433 22.3598 -72.7114
-19.913 1.50101 -87.7109
-35.2766 -80.8518 -32.4751
-39.4031 -81.441 -30.3525
-33.7739 -0.897735 87.1983
42.4567 56.2644 -66.0123
-150.339 58.1733 -39.9086
-155.226 55.4068 -41.5226
-162.876 -29.2065 60.358
-157.259 -29.1577 62.1778
-201.599 29.5134 -43.5561
-41.5923 78.4138 37.1952
-38.612 77.0776 40.2556
-41.6742 75.0201 43.6274
-167.42 43.993 48.7541
-169.383 39.819 51.4376
-247.328 -15.674 3.01463
67.8713 -69.1732 -48.9397
64.5666 -71.4123 -46.1941
-249.183 -11.3672 3.57716
-139.053 55.3618 -48.0812
-136.766 58.513 -45.0574
-145.396 58.3395 -41.8607
-140.512 60.3721 -41.012
-192.281 -48.452 29.4943
-193.371 -45.142 33.5893
-179.963 28.0891 54.6797
-176.18 31.7087 54.2071
-188.993 -1.05667 -58.0505
-193.888 -0.504204 -56.0472
-159.766 62.7737 -26.0465
-8.85761 -10.6607 87.2969
-225.66 -7.0052 -38.216
-233.969 -32.1493 2.89299
-237.149 -29.2954 0.586682
-249.989 3.62926 8.92178
-250.506 -1.97617 7.56058
-208.721 -48.9532 -3.74039
-207.399 -49.0372 -8.54906
-239.612 8.09123 -25.4821
-228.425 -10.0391 -35.4264
-190.896 -33.8664 46.2118
-74.256 -22.0773 -81.1266
-78.2708 -24.0388 -80.1005
-195.019 -34.8421 43.2862
-227.349 -15.5361 -34.2707
-222.173 -17.4635 -37.3594
-210.509 48.1516 0.206541
-213.307 46.5102 3.19782
161.522 -24.486 62.8515
-233.206 32.8767 -2.17699
-99.9127 75.1805 29.491
-104.438 74.8049 28.5103
-28.897 26.6487 83.2563
4.29302 19.8645 -85.7155
-27.1573 30.8943 81.8489
-227.389 9.18979 36.4581
-230.365 5.49116 34.8816
156.758 1.79598 -68.7917
154.159 -2.83868 -69.4721
-224.021 2.90201 39.8916
-221.054 -0.975117 41.9583
149.781 -13.0765 -69.4721
16.699 -16.9272 86.1588
21.6784 -16.1535 86.1715
145.936 -9.50861 -71.0362
159.236 -67.8619 5.86474
163.008 -66.9746 2.2862
-149.636 65.4615 26.7856
-225.9 14.1357 36.006
-204.809 -39.1475 32.8012
-202.396 -37.4137 36.4551
33.3482 86.8475 8.08416
-231.929 20.607 -27.0869
30.0102 86.4814 12.4383
-175.581 -62.0578 10.8839
-231.193 27.8487 20.6035
175.032 26.0999 -57.5501
-228 31.5579 19.5877
-246.148 -18.0161 -1.21637
-243.367 -22.1976 0.00841314
-24.0532 -5.98408 -87.392
-237.765 20.5528 -20.0074
-183.937 -58.5769 13.0607
-244.095 18.1633 -10.9275
-241.073 21.8311 -12.3378
-211.32 11.8163 -46.229
-214.221 7.56376 -45.4796
-229.446 36.0238 0.94434
-225.739 38.7947 -0.382702
-180.85 -60.4781 9.06112
190.459 -2.15457 57.4302
186.39 -4.88429 58.879
148.703 -34.7312 -61.8908
151.124 -30.7194 -63.2787
11.068 25.6553 -84.0881
157.485 -28.8547 -62.2491
-208.793 -5.97923 -48.6923
209.445 -39.1056 -29.0532
212.901 -35.4901 -30.5786
-236.489 5.7616 29.388
-100.5 79.7981 11.8194
-115.655 -59.3713 -50.8076
-110.891 -62.4725 -48.3289
132.721 18.8057 72.3446
136.05 21.0009 70.9706
-95.1587 80.479 12.59
-232.539 30.9347 12.9111
-235.742 27.2638 14.0247
-225.095 26.6416 28.8265
7.00147 87.7585 -6.0375
11.9002 87.7799 -4.62107
-227.625 22.7348 29.7263
-34.5065 24.8008 83.5652
-243.505 -20.0009 9.19058
-245.863 -16.6123 8.20167
151.658 -3.25005 70.1251
147.55 -5.72073 71.0341
-31.5075 69.6997 -52.5777
-36.7778 69.2434 -52.7612
40.8534 86.7752 -3.11935
46.0735 86.4887 -1.95007
194.951 42.5696 -35.76
196.667 38.9155 -38.6551
35.9318 -86.8723 6.25542
40.5022 -86.5765 6.90426
175.885 57.1394 -26.2989
177.187 58.462 -21.965
195.294 18.8307 52.1531
196.269 14.2704 53.1427
129.522 -72.4362 21.0502
-204.009 -12.5686 -49.905
-89.7522 81.5201 10.5943
-90.6817 81.891 5.57622
-208.516 -11.9609 -47.7262
147.248 -26.8397 -66.0991
-25.2331 -56.8537 -66.5861
-22.9841 -60.2186 -63.6635
-9.36298 -5.17805 -87.7864
-165.272 38.3112 54.1488
-100.816 -11.8472 79.7451
-103.686 -8.74736 79.6948
-105.249 -72.7866 -33.0139
191.787 -42.3118 -38.0849
187.842 -41.8546 -40.8935
33.1839 84.0197 -23.4494
29.129 83.3319 -26.3801
-109.119 -70.5545 -36.1703
-219.338 33.2427 27.366
-215.957 35.9413 27.2468
-219.159 -35.6237 24.383
-217.472 -33.0502 29.3508
-220.075 -28.5453 31.6146
-1.82848 -74.6766 46.5509
1.76963 -76.5693 43.3678
60.2938 -74.665 41.5218
110.767 5.85541 -78.7881
0.646039 -72.2406 50.2518
159 30.8362 -60.8108
161.176 27.0386 -61.9068
-120.505 75.4446 16.5605
-121.022 73.0049 24.9228
-124.747 73.6621 20.3137
-24.8466 81.8094 -31.2352
-33.6687 81.8762 -30.0249
91.6549 -74.3472 34.4674
20.6522 20.4387 -85.288
-30.1763 80.8264 -33.1603
-55.095 80.1563 30.7788
-60.9171 79.9543 29.9497
-36.9173 86.7586 -7.07683
210.656 0.0827749 -48.0729
209.145 -4.46547 -48.6699
-58.0955 81.6237 25.8527
-81.463 -74.6128 36.9385
149.234 -65.0907 27.939
153.515 -63.3139 29.1556
36.8264 -25.5397 -83.2207
-78.1922 -73.4991 39.9167
-48.9921 -32.6075 -79.918
-44.0933 -30.2688 -81.1774
17.1606 74.396 -46.6173
19.3554 71.2811 -51.1579
-78.6887 -70.3624 45.1115
-166.294 -40.9837 -51.7561
-161.355 -39.9113 -54.4385
-159.885 -35.8785 -57.6803
74.2227 -20.4537 81.5547
78.9733 -48.3844 68.113
78.908 -17.4993 81.7035
9.09383 75.2605 -45.4943
4.03982 73.0474 -49.0518
9.45526 79.6274 -37.3166
13.5709 77.8294 -40.7926
-101.792 9.54479 79.902
-105.159 6.8328 79.6457
80.8965 -51.8286 65.2425
-4.33968 -29.0952 83.0371
86.3643 -52.6292 63.7259
131.809 13.6018 73.7016
136.293 12.2068 72.9435
-78.6601 -66.1045 -51.1533
-74.705 -63.9738 -54.4802
-148.271 -15.6956 -69.326
-153.34 -18.6165 -67.2214
-119.319 37.6639 67.6934
-117.247 41.8178 65.6677
95.219 -75.7956 29.8159
100.124 -74.6831 30.6447
241.832 20.2895 -13.1241
243.065 16.6192 -15.3149
-29.2423 80.1792 34.7938
59.2541 -70.8296 -47.9302
55.3178 -66.3628 -54.4549
59.9038 -68.0908 -51.6557
-99.7835 -64.3328 48.8496
-98.9365 -61.2772 52.8271
-160.563 41.4567 53.5633
-142.229 -72.4371 -4.49593
-140.358 -73.021 -0.136824
41.4274 -82.4568 27.1063
35.6239 -80.5303 33.219
36.3193 -82.1332 28.9248
-84.7634 -64.176 -52.4003
75.2663 -73.2095 -41.1193
-12.8591 -81.0489 -33.9828
-17.8805 -81.231 -33.2624
70.8717 -74.7625 -39.238
70.7201 -77.352 -33.8874
56.6867 84.7743 12.8026
51.9488 84.9967 13.7534
48.981 84.5614 17.3102
158.85 -42.755 53.1666
158.723 -39.203 55.8816
155.175 -45.6191 52.1043
-64.3567 67.6499 -51.5792
-185.905 9.11626 58.563
111.169 -17.4676 -76.9794
112.787 -12.5746 -77.6432
-13.2414 10.4703 87.252
200.492 -35.4351 39.5852
-121.775 -73.6702 22.3864
208.966 -31.5099 37.4829
204.443 -31.8781 40.1319
-235.943 8.2785 -29.3233
-172.677 -63.66 6.39215
237.081 -20.8547 -20.6788
238.928 -16.6754 -21.8361
-199.261 27.0795 46.364
-235.092 3.75411 -31.038
50.5259 -76.8818 38.9953
-195.727 37.5254 -40.5666
-190.504 40.0922 -41.1509
50.8409 61.9003 59.9658
55.8745 63.0353 58.2094
-4.96922 -82.0857 31.6689
0.758289 -83.0343 29.1415
-74.5424 -59.9406 -58.9138
-78.9574 -53.4255 -64.2374
-79.5494 -57.5419 -60.4829
-82.9532 -51.4541 -65.2227
195.689 -36.2575 41.7256
193.652 -33.4037 45.132
-79.5954 -45.2418 -70.1536
-74.1088 -45.969 -70.4163
-42.0677 5.52088 -86.5844
50.707 0.8881 86.1883
56.2661 -2.32141 85.738
-40.5764 9.87149 -86.2843
-29.5426 -78.7549 -37.8788
-29.4262 -76.2981 -42.6215
139.815 -62.1716 -38.5408
148.404 -58.0806 -40.9176
-103.767 17.0999 -78.3155
-100.411 20.726 -77.9746
145.327 -60.9053 -38.0634
-166.622 -41.0377 51.5838
-164.289 -45.9859 48.2162
38.7049 71.4765 -49.5146
103.931 -60.1156 52.9874
107.389 -56.8474 55.6817
-174.3 -3.37497 63.3493
-169.408 0.993321 65.0336
-142.153 -57.9143 43.7712
-138.314 -61.197 40.7032
-142.604 71.4479 12.2252
-147.885 69.6799 14.532
-174.257 -37.1194 -51.4634
-231.137 4.36174 -34.4122
92.229 63.9897 -51.0676
96.458 65.7005 -47.8366
229.582 -30.6586 -18.7347
225.943 -31.9947 -21.6847
-53.9589 -26.4181 -81.7901
-53.2888 -30.9131 -80.2541
20.0004 57.694 66.0789
23.2941 54.6971 68.4529
-134.026 -68.9433 28.1357
-138.565 -69.1278 24.792
-186.391 -54.8063 22.065
-191.302 -53.4234 20.2343
-55.422 76.6684 -38.5992
-62.0965 75.4081 -39.8187
-194.346 -50.0158 24.8635
-184.636 58.2233 -13.4293
30.3767 -18.9917 85.2663
-181.515 60.8205 -3.32413
52.4485 -16.3114 84.5053
57.1725 -14.4964 84.461
131.662 -74.5924 -7.59397
-177.628 61.9028 -7.01222
-179.99 60.2938 -11.9305
-169.687 7.23644 64.5477
-180.285 58.2503 -19.2769
-165.982 11.1318 65.17
-167.162 16.7823 63.571
-94.3991 64.8667 49.45
-88.5563 67.1864 47.6431
46.7033 81.6186 -28.5544
50.0936 82.4145 -25.3896
54.2491 83.0837 -21.9267
-182.06 -16.293 -58.4848
-180.686 -22.6274 -56.8767
78.9317 62.4826 55.4721
79.7013 59.232 58.8035
-175.226 -22.5946 -58.9437
-127.479 -53.0126 54.2591
-124.902 -49.1297 58.4832
-132.007 -54.0284 51.8793
-115.853 -27.5578 73.0844
-150.832 -16.286 68.5086
-116.921 -36.4836 68.8422
-118.311 -31.5754 70.9456
-73.8762 -69.264 47.7316
16.3385 -1.79338 -87.7958
-149.573 -33.1105 62.5194
-145.485 -36.7211 61.6782
-182.366 16.9371 -58.1843
-177.734 15.9771 -60.1766
-113.502 -75.777 -20.6063
-110.408 -77.1905 -17.123
-104.981 66.7125 -44.0923
-109.915 67.5945 -41.1809
-100.678 68.4559 -42.6243
-231.561 -31.9391 12.6133
-234.187 -30.8846 8.69671
-227.812 -35.5113 11.3593
-168.071 -63.95 14.0003
-186.563 -50.3518 30.7803
-67.9722 62.9426 -56.7149
-62.8166 63.6382 -56.6663
-176.213 3.79693 -62.6736
-85.9488 32.7617 75.9358
-171.012 3.64564 -64.4223
-148.6 16.8408 -68.9702
-148.839 11.6977 -69.9639
-172.445 -5.16862 -63.8477
-169.868 -1.97334 -64.8642
-122.912 13.0186 75.6632
-127.835 14.1562 74.4505
-37.2179 86.3008 11.2512
-35.1703 85.5538 16.526
-39.3385 85.0196 -18.0612
-45.0599 84.4218 -19.1931
-48.5414 45.1467 -73.6023
-41.3523 51.6321 -69.7766
[...]
POINT_DATA 6172
VECTORS F double
1.26896e-09 5.54451e-08 5.83614e-09
-1.70213e-08 3.69708e-08 -3.06992e-09
-9.93175e-08 -1.05293e-08 -3.48793e-09
-9.95573e-08 -1.10103e-08 -4.28667e-09
8.72677e-08 5.79389e-08 -2.57099e-10
1.81418e-07 1.54552e-08 2.85398e-09
-9.21219e-08 2.44988e-08 1.33763e-08
-9.73018e-08 2.16388e-08 1.13973e-08
7.66601e-08 7.20483e-08 2.54525e-08
2.69698e-09 7.15107e-08 -1.10548e-08
1.64826e-09 7.1344e-08 -9.29704e-09
8.30546e-08 5.96493e-08 1.80516e-08
8.25821e-08 5.84367e-08 1.47705e-08
-3.4017e-08 2.84118e-08 1.4164e-09
-3.94696e-08 5.58091e-09 1.48759e-09
-3.53527e-08 9.79476e-09 1.19874e-09
-3.32745e-08 -3.71951e-08 9.5678e-10
-2.81312e-08 -3.64503e-08 2.08751e-09
1.85405e-07 1.49424e-08 5.4541e-09
-1.75405e-08 3.68168e-08 -2.07297e-09
-2.6234e-08 6.4257e-08 -2.10815e-08
-2.3281e-08 6.57743e-08 -1.88051e-08
5.60773e-08 6.44188e-08 7.24686e-09
5.76083e-08 6.76186e-08 8.52958e-09
-8.65344e-09 5.50228e-08 1.18214e-09
-1.09945e-07 1.3381e-08 -1.86923e-08
-1.10501e-07 1.32859e-08 -1.80857e-08
-1.98102e-08 4.43285e-08 -4.83004e-10
7.91818e-08 1.39702e-08 1.81422e-08
1.09828e-07 4.17026e-08 1.01348e-08
1.06781e-07 4.40993e-08 9.97279e-09
-3.27972e-08 5.18632e-08 1.42605e-08
-3.18308e-08 5.39814e-08 1.54577e-08
6.48507e-08 6.19121e-08 5.20243e-09
1.68886e-07 1.68623e-08 -1.24271e-08
1.72155e-07 1.78229e-08 -1.39086e-08
1.62032e-07 2.12921e-08 -1.76632e-08
8.07305e-08 4.45698e-08 -6.27639e-09
7.16014e-08 4.66184e-08 -7.22134e-09
-3.75974e-08 7.23104e-08 -1.68325e-09
-8.55876e-08 -8.52638e-09 -2.48052e-09
-8.85487e-08 -7.27924e-09 -3.89974e-09
-2.91669e-08 7.78247e-08 -1.44079e-09
1.06124e-07 4.63232e-08 1.57618e-08
1.1435e-07 4.34867e-08 1.39781e-08
1.12655e-07 4.41943e-08 1.36863e-08
1.14809e-07 4.33053e-08 1.55899e-08
-6.6666e-08 3.80724e-08 9.33389e-09
-5.97056e-08 4.01541e-08 1.18828e-08
5.42102e-08 5.39709e-08 -5.88115e-09
5.83197e-08 5.13447e-08 -6.82804e-09
1.61869e-08 7.07438e-08 -7.73978e-09
1.45926e-08 6.79651e-08 -6.79193e-09
1.16738e-07 3.98296e-08 8.32483e-09
-4.16196e-08 2.38169e-08 2.3915e-09
-1.96368e-09 7.14123e-08 -1.16709e-08
-6.00151e-08 5.32988e-08 -1.94179e-09
-5.76086e-08 5.70168e-08 -3.90572e-09
9.93455e-09 8.51176e-08 -5.39842e-10
-5.70603e-09 8.48929e-08 -9.53192e-10
-7.13923e-08 3.79641e-08 -9.12296e-09
-7.19006e-08 3.91949e-08 -1.1266e-08
2.46367e-08 7.87506e-08 -3.35796e-09
-8.84473e-09 7.21303e-08 -1.34583e-08
-4.30682e-08 4.88127e-08 1.39909e-08
-3.02299e-08 8.15683e-08 -1.88099e-08
-2.99673e-08 7.75819e-08 -1.96978e-08
-4.36903e-08 4.593e-08 1.28711e-08
-2.05849e-08 6.78652e-08 -1.4047e-08
-2.01799e-08 6.64272e-08 -1.63586e-08
9.80364e-08 5.24709e-08 5.39906e-10
9.50013e-08 5.33959e-08 -7.71452e-10
-4.14318e-08 -3.37379e-08 -1.07934e-10
7.58611e-08 6.59837e-08 1.54435e-09
1.44778e-07 2.43659e-08 -2.06368e-09
1.42848e-07 2.45427e-08 -3.29559e-10
2.63478e-08 5.45145e-08 -1.63294e-08
9.53469e-09 4.27279e-08 9.96056e-09
3.8022e-08 5.05005e-08 -1.75172e-08
2.2271e-08 6.90562e-08 -4.00252e-10
1.5274e-08 7.12878e-08 1.1278e-09
-3.04813e-09 -3.44613e-08 -1.75012e-09
-1.00713e-08 -3.14742e-08 -1.45013e-09
8.78574e-09 6.82428e-08 1.07616e-09
4.12702e-09 6.52315e-08 4.17814e-09
-1.88919e-08 -3.16314e-08 9.67171e-10
-4.9449e-08 4.63843e-09 2.08468e-09
-4.84402e-08 2.77392e-09 2.012e-09
-1.70281e-08 -2.93837e-08 -3.49792e-10
-7.9533e-08 -2.29589e-08 -1.27971e-09
-7.77995e-08 -2.31936e-08 -3.14901e-10
1.21525e-07 3.33784e-08 1.54274e-09
3.4574e-08 6.7169e-08 1.87325e-10
-5.56881e-08 4.49937e-08 1.11285e-08
-5.27666e-08 4.56392e-08 1.09726e-08
2.76978e-07 -1.29518e-08 -9.2129e-10
5.12527e-08 7.17285e-08 8.40537e-10
2.59847e-07 -9.81491e-09 -8.54131e-09
-7.93273e-08 2.75052e-08 1.52731e-10
6.30682e-08 6.68217e-08 -3.67577e-09
2.74419e-08 -3.69674e-08 -6.54721e-09
6.98661e-08 6.29367e-08 -1.83225e-09
-4.19004e-08 7.03964e-08 -4.56476e-09
-4.81715e-08 6.46589e-08 -3.62992e-09
-1.77579e-08 5.42152e-08 -3.11393e-09
5.17107e-08 7.36964e-08 4.68244e-10
-7.70491e-08 3.01743e-08 2.48169e-09
4.81906e-08 7.90812e-08 -3.48078e-10
5.52502e-08 7.54818e-08 1.38963e-09
3.46271e-08 6.65954e-08 -2.35707e-09
2.5654e-08 7.10593e-08 -2.97626e-09
8.12719e-08 6.33952e-08 -7.47349e-10
8.50477e-08 6.05981e-08 1.01324e-09
-7.99332e-08 2.90412e-08 -1.48848e-09
-1.74347e-08 -3.97202e-08 5.5888e-09
-1.89435e-08 -3.95042e-08 4.06495e-09
-4.18552e-08 -2.59018e-08 2.22314e-09
-3.62151e-08 -2.82178e-08 3.10958e-09
1.91727e-08 3.74629e-08 1.17388e-08
-3.54665e-08 -2.7548e-08 1.78414e-09
4.38441e-09 6.93208e-08 -1.08142e-08
-4.73975e-08 -3.39213e-08 3.82476e-09
-4.36175e-08 -3.61562e-08 4.78328e-09
1.49048e-08 7.44982e-08 7.9162e-11
1.56271e-07 2.37645e-08 2.23594e-09
-7.27099e-08 4.79306e-08 -3.57457e-08
-7.62644e-08 4.23407e-08 -3.33079e-08
6.94213e-10 -3.77806e-08 9.66506e-09
2.42588e-09 -3.83935e-08 1.07917e-08
1.58392e-07 2.29432e-08 -8.93979e-11
7.08297e-08 6.57568e-08 -1.36686e-09
6.4365e-08 6.97044e-08 -3.04414e-09
5.84638e-08 6.3191e-08 -2.50915e-09
2.27579e-07 -1.64282e-09 8.44321e-09
2.34792e-07 -3.60191e-09 5.63634e-09
5.06076e-08 6.6814e-08 -3.65506e-09
2.59467e-08 5.33474e-08 -1.45209e-08
-4.38456e-08 6.58274e-08 1.02896e-09
-3.91246e-08 7.1123e-08 4.65798e-10
-2.20926e-08 -3.74733e-08 4.11288e-09
-2.3235e-08 -3.72157e-08 2.91175e-09
1.55569e-07 3.31866e-08 3.258e-08
1.54527e-07 3.30889e-08 3.02379e-08
3.32365e-07 -1.85698e-08 1.78452e-08
5.58245e-07 -3.76125e-08 -4.64099e-08
4.51426e-08 -3.02676e-08 -5.90119e-09
4.06567e-08 -3.22742e-08 -7.16685e-09
-1.09144e-07 -5.9066e-09 -5.27149e-09
-1.08451e-07 -6.62152e-09 -5.14043e-09
5.88256e-08 -2.40157e-08 -4.01212e-09
5.95658e-08 -2.34695e-08 -3.63812e-09
8.39926e-09 -3.80217e-08 9.87773e-09
2.25036e-09 -3.99954e-08 9.72249e-09
-8.63044e-08 -2.00219e-08 -3.8832e-09
-5.61287e-09 6.8014e-08 -1.43203e-08
1.61512e-07 2.14509e-08 2.46193e-09
1.62199e-07 2.19033e-08 1.27005e-09
-6.91254e-09 6.69863e-08 -1.30903e-08
-3.40936e-08 -2.64343e-08 1.43509e-09
-8.47645e-08 2.8191e-08 -2.01378e-08
-8.90413e-08 2.48915e-08 -1.9609e-08
-2.31679e-08 4.38871e-08 -2.28615e-09
7.19296e-08 4.65933e-08 -6.08684e-09
-1.46988e-08 6.28407e-08 7.06079e-09
-1.18392e-08 6.68021e-08 5.44646e-09
-9.41197e-08 2.94975e-08 -2.82981e-08
-4.85263e-08 -3.03445e-08 3.79417e-09
-4.90196e-08 -3.04412e-08 3.58906e-09
2.51123e-07 -1.59604e-09 3.77962e-08
2.39029e-07 3.0961e-09 4.20979e-08
-8.99185e-08 3.35802e-08 -3.2291e-08
6.95798e-08 5.90798e-08 -3.48965e-09
7.35017e-08 5.67838e-08 -3.57886e-09
-5.59591e-08 4.7388e-08 7.65536e-09
-5.09206e-08 4.80975e-08 7.9679e-09
-4.46136e-08 5.28898e-08 9.73268e-09
-1.04887e-07 1.18289e-09 1.39322e-09
-1.05928e-07 -2.9845e-10 2.28496e-12
-9.71661e-08 -1.20924e-08 -4.4704e-09
-4.06571e-09 -2.99947e-08 -2.929e-09
-1.02773e-07 8.43383e-10 1.37421e-09
2.96912e-08 -3.36513e-08 -7.55949e-09
2.58176e-08 -3.63897e-08 -7.66435e-09
1.43734e-07 2.75776e-08 2.41573e-09
1.37218e-07 2.78198e-08 8.57902e-11
1.36877e-07 2.87427e-08 -1.31694e-09
1.83499e-07 1.59501e-08 2.39043e-08
1.77875e-07 1.66394e-08 2.09537e-08
-9.27688e-08 -1.5945e-08 -4.19162e-09
8.3723e-09 2.68445e-08 6.68129e-09
1.81461e-07 1.76771e-08 2.28689e-08
1.66613e-07 1.77344e-08 -9.67096e-09
1.64308e-07 1.72273e-08 -5.07395e-09
1.97547e-07 1.08656e-08 7.03641e-09
2.06878e-10 -3.90934e-08 4.35874e-11
-6.16231e-09 -3.74823e-08 1.96901e-10
1.71749e-07 1.58277e-08 -2.71986e-09
-1.02455e-07 1.67481e-08 6.1667e-09
-7.84004e-08 -2.32855e-08 -2.97917e-09
-7.72793e-08 -2.43734e-08 -3.11148e-09
-4.88486e-08 1.62903e-09 -3.14645e-09
-1.032e-07 1.79511e-08 8.30352e-09
-5.12433e-08 5.62198e-08 -1.90923e-08
-5.02086e-08 5.70243e-08 -1.79239e-08
1.9187e-07 3.0328e-08 5.70479e-08
1.73201e-07 2.88836e-08 4.82679e-08
-9.80975e-08 1.92562e-08 9.08528e-09
-4.45182e-08 5.36358e-08 -2.49599e-08
-4.42318e-08 5.71946e-08 -2.5881e-08
-3.67191e-08 5.83028e-08 -2.38044e-08
-4.65251e-08 -2.07497e-08 -1.99684e-11
-7.28004e-08 -1.7861e-08 -2.35349e-09
-4.40571e-08 -2.29196e-08 3.0045e-10
1.9197e-07 2.55851e-08 4.70232e-08
1.87889e-07 2.89096e-08 4.4946e-08
1.99807e-07 1.31643e-08 3.42906e-08
2.08307e-07 1.72287e-08 4.13563e-08
2.05724e-08 6.48145e-08 -4.53377e-09
1.72294e-08 6.544e-08 -2.82894e-09
-7.57796e-08 -1.91253e-08 -3.68931e-09
-6.2809e-08 1.49689e-08 4.843e-09
-7.49641e-08 -1.91102e-08 -3.34417e-09
-7.01303e-09 -3.72847e-08 8.41654e-09
-6.232e-09 -3.63731e-08 7.51254e-09
-8.82934e-08 3.68776e-08 -3.10337e-08
-8.8867e-08 3.96461e-08 -3.16358e-08
-7.53818e-09 7.05674e-08 -1.40028e-08
-7.99356e-09 6.65606e-08 -1.62011e-08
7.1836e-08 4.87371e-08 -1.16146e-08
8.28336e-08 4.52126e-08 -1.06848e-08
-9.28558e-08 -1.61861e-08 -4.84116e-09
-9.17366e-08 -1.71187e-08 -5.02363e-09
3.03563e-08 -4.34741e-08 1.27279e-09
2.54892e-08 -4.52955e-08 3.74522e-10
1.82398e-07 1.23431e-08 -9.67489e-09
-8.90879e-08 -6.61187e-09 -3.71316e-09
-8.58478e-08 -5.57464e-09 -3.8833e-09
-8.5569e-08 -6.43471e-09 -3.66705e-09
-8.99174e-08 2.93192e-08 1.61252e-08
-8.54834e-08 3.05673e-08 1.58562e-08
7.47515e-08 4.50956e-08 -7.46899e-09
-8.98145e-08 2.23911e-08 -1.28989e-08
-9.36047e-08 2.20457e-08 -9.4793e-09
-1.05567e-07 -7.75023e-09 -3.82288e-09
-1.0473e-07 -6.87699e-09 -2.92095e-09
-1.06272e-07 -7.06118e-09 -3.71336e-09
-8.73017e-08 4.13838e-08 -3.33942e-08
-8.92437e-08 -9.84272e-09 -2.4755e-09
-1.08586e-07 8.34348e-09 -1.48687e-08
-1.09654e-07 9.17642e-09 -1.51933e-08
-9.08908e-08 -8.70757e-09 -3.50802e-09
-9.39096e-08 -9.12418e-09 -3.16707e-09
2.21726e-07 -1.64444e-08 -1.10596e-08
2.05497e-07 -2.672e-09 -7.97543e-08
2.51639e-07 -1.50024e-08 -1.38659e-08
-5.78006e-08 -3.10659e-08 -3.83909e-09
-5.34096e-08 -3.07827e-08 -3.02233e-09
-6.05743e-08 -2.90489e-08 -3.34686e-09
1.36859e-07 3.60087e-08 2.63215e-08
2.444e-08 5.76714e-08 5.21178e-10
-2.91996e-08 -2.51243e-08 5.38361e-10
-2.18364e-08 -2.69456e-08 4.80396e-10
-1.01862e-08 3.65659e-08 -4.5772e-09
-4.98007e-08 -3.48776e-08 -3.40047e-10
-9.78065e-08 2.06075e-08 2.67869e-09
-4.59128e-08 -3.67516e-08 4.42649e-10
-4.68872e-08 -3.70927e-08 -2.20497e-10
2.63348e-08 7.81132e-08 -3.89043e-09
-8.22734e-08 2.70155e-08 -3.05451e-09
-2.94742e-08 -4.5434e-08 4.44841e-09
-2.319e-08 -4.73663e-08 5.10542e-09
5.51212e-08 5.38346e-08 -2.43929e-09
1.66492e-08 7.54454e-08 -6.31459e-09
-1.00165e-07 -9.99172e-09 -3.8099e-09
7.89057e-08 5.62866e-08 5.45666e-09
8.13712e-08 5.56255e-08 8.07475e-09
6.42871e-08 -6.05039e-09 -4.27501e-10
6.69383e-08 -1.01046e-08 3.07567e-09
-1.11467e-07 2.83339e-10 -1.40691e-09
-1.11203e-07 -9.69545e-10 -2.40824e-09
-8.24103e-08 4.23523e-08 -3.03244e-08
-7.26695e-08 5.06344e-08 -3.11764e-08
-7.98622e-08 4.82292e-08 -3.30243e-08
-7.03096e-08 5.63878e-08 -3.35362e-08
-5.09142e-08 -3.54193e-08 -1.54332e-09
-4.87531e-08 -3.47962e-08 -1.4255e-10
-6.31986e-08 6.10148e-08 -3.05694e-08
-6.29144e-08 5.72206e-08 -2.92481e-08
7.83664e-09 7.49285e-08 4.31149e-09
-2.9028e-08 -1.233e-08 2.21793e-09
-3.05743e-08 -1.59863e-08 2.02369e-09
1.90436e-08 7.20533e-08 7.14693e-09
-1.0781e-07 1.39559e-08 -1.87217e-08
-1.05013e-07 1.53954e-08 -1.86835e-08
-7.039e-08 -2.06874e-08 2.10848e-09
-6.55884e-08 -2.25107e-08 2.8287e-09
4.61067e-08 7.30296e-08 8.4664e-09
5.32789e-08 6.7892e-08 9.64606e-09
-6.95288e-08 -2.10082e-08 1.11447e-09
-4.77927e-08 4.53352e-08 1.71662e-08
-5.68619e-08 4.05673e-08 1.49703e-08
1.6189e-07 2.33146e-08 4.91485e-08
-7.92927e-08 -2.03355e-08 -4.02988e-09
-7.54675e-08 -2.24712e-08 -5.12202e-09
4.8685e-09 5.76295e-08 4.7103e-09
9.79752e-09 5.65748e-08 2.26059e-09
-7.39255e-08 3.54253e-08 1.74782e-08
-7.87578e-08 3.09452e-08 1.37603e-08
1.32597e-07 3.18136e-08 3.43701e-09
1.28893e-07 3.32126e-08 1.33764e-09
-3.95753e-08 5.54181e-08 -2.35658e-08
1.88352e-08 7.62792e-08 -5.8207e-09
8.98925e-08 -2.78152e-08 -1.49773e-08
8.8707e-08 -2.59202e-08 -1.37007e-08
-4.08798e-08 -4.07042e-08 5.27838e-09
-4.18031e-08 -3.98663e-08 5.49379e-09
-4.13865e-08 6.43303e-08 -1.74358e-08
-5.01934e-08 6.13101e-08 -1.95356e-08
7.03693e-08 3.5935e-08 -3.3983e-08
5.4282e-08 2.59058e-08 -2.29616e-08
-8.9316e-08 2.46796e-08 8.38499e-09
-8.86233e-08 2.35389e-08 4.99108e-09
-7.31404e-08 3.35199e-08 7.61595e-09
-7.33894e-08 3.40052e-08 4.83378e-09
1.60342e-07 2.60604e-08 2.35761e-08
1.57848e-07 2.66956e-08 2.04179e-08
-6.83391e-08 3.6633e-08 8.29252e-09
1.10421e-07 4.42682e-08 6.05885e-09
-5.09463e-08 -2.72215e-09 1.61584e-09
1.14211e-07 4.19135e-08 3.33589e-09
-4.58027e-08 -1.42162e-08 7.36363e-10
-4.45696e-08 -1.55537e-08 1.02415e-09
-8.51209e-08 -1.81747e-08 -2.16036e-09
1.1687e-07 4.15745e-08 4.56395e-09
1.12855e-07 4.22579e-08 5.1113e-09
2.23456e-08 5.85748e-08 6.25229e-10
1.09503e-07 4.38848e-08 7.22749e-09
2.86328e-08 5.5836e-08 -6.09148e-10
3.7463e-08 5.80472e-08 -3.26336e-09
1.25422e-07 3.30617e-08 -1.40558e-08
1.28306e-07 3.15943e-08 -1.53562e-08
2.63736e-07 -1.69187e-09 4.79808e-08
2.68516e-07 -5.80532e-09 4.60183e-08
2.84618e-07 -1.54481e-08 2.76757e-08
-6.69783e-09 6.84893e-08 -1.65274e-08
-1.85328e-08 6.40026e-08 -1.82542e-08
6.7232e-08 -2.43662e-08 1.57334e-08
5.74626e-08 -2.61193e-08 1.67743e-08
-1.71667e-08 6.60142e-08 -1.9057e-08
-7.02769e-08 4.09474e-08 1.97919e-08
-6.36166e-08 4.11119e-08 1.79026e-08
-7.02006e-08 3.76295e-08 1.73192e-08
-3.16122e-08 5.45015e-08 1.44156e-08
-1.53936e-08 6.05669e-08 1.02487e-08
-4.91167e-08 5.08496e-08 1.67352e-08
-3.92362e-08 5.52405e-08 1.65749e-08
-9.82868e-08 2.05016e-08 1.11257e-08
-2.09115e-08 2.27992e-08 -9.42157e-10
-3.8368e-08 5.14673e-08 1.60191e-08
-4.02972e-08 4.76276e-08 1.67186e-08
4.39373e-08 6.29977e-08 1.47801e-09
4.51908e-08 6.48487e-08 8.7639e-10
-9.66373e-08 2.44487e-08 -2.47386e-08
-1.0089e-07 2.22046e-08 -2.04539e-08
1.31527e-07 3.63737e-08 1.66939e-08
1.30201e-07 3.6034e-08 1.65997e-08
1.33956e-07 3.51504e-08 1.77151e-08
-5.7665e-08 5.23211e-08 2.87617e-09
-5.7295e-08 5.32771e-08 3.10939e-10
-5.98491e-08 4.76357e-08 1.96766e-09
-8.10331e-08 2.62285e-08 7.06869e-10
-6.61161e-08 3.71914e-08 1.17769e-08
1.32426e-07 3.94262e-08 2.43243e-08
1.3296e-07 4.28664e-08 3.00952e-08
2.3359e-08 6.84566e-08 -3.89357e-09
5.92125e-08 6.2041e-08 -1.85616e-08
2.47939e-08 7.32996e-08 -3.91001e-09
5.00379e-08 6.98942e-08 3.86736e-09
3.94395e-08 6.98494e-08 1.4063e-09
1.06671e-08 7.2478e-08 -9.39462e-09
1.6718e-08 7.09386e-08 -7.51834e-09
3.37568e-08 5.86245e-08 -3.37327e-09
3.34836e-08 5.94123e-08 -4.25792e-09
1.89574e-07 1.04313e-08 -3.23455e-09
1.88961e-07 9.87717e-09 -1.89766e-09
1.90347e-07 1.36235e-08 1.33712e-08
1.86932e-07 1.53577e-08 1.38207e-08
1.05222e-07 5.98305e-08 2.82031e-08
1.17083e-07 5.48817e-08 3.21152e-08
1.0476e-07 6.12098e-08 3.29301e-08
3.95194e-08 -3.10303e-08 1.67816e-08
1.02894e-07 4.53787e-08 -3.29474e-08
1.01324e-07 4.41229e-08 -3.01174e-08
3.2625e-08 -3.23622e-08 1.53664e-08
3.92505e-08 -3.26633e-08 1.5992e-08
2.10457e-07 8.64142e-09 -5.2788e-08
1.93784e-07 1.50143e-08 -5.86796e-08
1.72646e-07 2.01366e-08 -5.97451e-08
-6.4326e-08 3.78143e-08 1.49886e-08
-5.33328e-08 -3.43134e-08 1.15814e-10
-5.46458e-08 -3.48452e-08 -1.23442e-09
-1.05684e-07 3.52998e-09 2.41807e-09
-1.066e-07 3.98426e-09 2.2084e-09
-7.10955e-08 3.64188e-08 1.60704e-08
-6.35326e-08 3.79474e-08 1.6837e-08
-6.19139e-08 2.41997e-08 -1.08842e-08
-5.96548e-08 2.8846e-08 -1.14519e-08
7.67123e-08 5.12622e-08 3.37638e-08
-1.10871e-07 -2.91358e-09 -7.56806e-09
-1.11641e-07 -2.05879e-09 -7.83044e-09
-6.14329e-08 3.04009e-08 -1.26087e-08
1.68762e-07 1.96337e-08 3.09486e-09
1.66314e-07 2.08951e-08 4.70374e-09
-8.79918e-08 2.88793e-08 1.44307e-08
-8.73161e-08 2.89627e-08 1.50663e-08
-1.14548e-07 -6.06671e-10 -6.06683e-09
-1.152e-07 2.07854e-10 -6.12624e-09
3.34174e-08 7.96713e-08 8.2938e-09
3.29137e-08 8.24436e-08 1.18727e-08
-5.8376e-08 3.64682e-08 -1.3257e-08
-4.72617e-08 -2.77788e-08 -1.03388e-09
-6.07654e-08 3.72684e-08 -1.49409e-08
-1.05193e-07 1.19926e-08 6.18055e-09
-1.07746e-07 8.51631e-09 3.96825e-09
1.59429e-07 2.22642e-08 -1.48884e-09
1.62058e-07 2.09441e-08 -1.84529e-10
-1.04461e-07 1.09548e-08 6.2291e-09
-5.3585e-08 -3.79008e-08 2.48904e-09
1.39917e-07 -2.14253e-08 -7.44819e-09
1.38672e-07 -2.09082e-08 -4.56834e-09
-4.97883e-08 -3.95819e-08 1.91624e-09
-4.96119e-08 -3.96541e-08 1.45973e-09
7.13808e-09 -3.75848e-08 1.08714e-08
4.42751e-09 -4.02812e-08 9.93788e-09
6.89013e-09 -4.0335e-08 1.14658e-08
-2.42869e-08 6.42206e-08 -2.06503e-08
-2.3694e-08 6.81939e-08 -2.17565e-08
-1.98202e-08 6.82749e-08 -1.88607e-08
-6.14336e-08 -2.93162e-08 -4.48298e-09
-1.7817e-08 6.92739e-08 -1.93678e-08
1.37127e-07 3.25563e-08 5.60425e-09
-7.78216e-08 2.90187e-08 4.81257e-09
-8.07932e-08 2.83234e-08 2.7633e-09
1.26678e-07 3.23178e-08 2.7382e-09
1.23517e-07 3.28277e-08 -4.17074e-10
1.28714e-07 3.15669e-08 8.29962e-10
1.27534e-07 3.11047e-08 1.78646e-09
-6.37671e-08 4.54381e-08 -3.08816e-08
-7.09111e-08 4.26487e-08 -3.01539e-08
-7.03176e-08 4.14693e-08 -3.12984e-08
-7.45444e-08 -1.63577e-08 3.52993e-10
-7.33818e-08 -1.75735e-08 7.80848e-10
-7.24545e-08 -1.74018e-08 2.65204e-10
1.2017e-07 3.89962e-08 7.0286e-09
1.18013e-07 4.0716e-08 6.35943e-09
1.54437e-07 2.42236e-08 -5.93237e-10
1.52169e-07 2.46519e-08 1.2578e-09
-7.13162e-08 4.54611e-08 -3.22504e-08
-7.10197e-08 4.27751e-08 -3.26935e-08
-7.94868e-08 2.73609e-08 5.58065e-09
-7.60008e-08 2.97898e-08 1.0439e-08
6.83946e-08 5.07886e-08 -1.04729e-08
1.81805e-08 7.51899e-08 1.00739e-08
-8.03038e-08 2.87899e-08 9.19453e-09
-7.42056e-08 3.92255e-08 1.83141e-08
4.43965e-08 6.75772e-08 2.37508e-09
-3.98786e-06 7.55524e-07 3.96321e-06
-0.00016859 2.75594e-05 -0.000168801
-7.29348e-08 3.91161e-08 1.9674e-08
6.68442e-09 5.95127e-08 4.54547e-09
4.89674e-08 6.93182e-08 5.98391e-09
9.96642e-08 -1.23076e-08 3.50768e-09
-2.33961e-08 -2.54232e-08 3.62707e-10
9.68551e-08 -8.58647e-09 -8.24976e-10
5.67879e-08 6.84852e-08 7.34204e-09
4.78568e-08 6.67416e-08 4.42007e-09
1.48178e-07 3.02573e-08 1.73829e-08
1.48064e-07 2.98058e-08 1.85691e-08
1.41912e-07 3.24378e-08 1.85091e-08
1.46383e-07 2.97034e-08 1.60312e-08
1.11408e-07 4.23362e-08 7.91148e-09
1.13511e-07 4.22823e-08 9.43807e-09
1.44478e-07 3.16125e-08 1.0843e-08
1.47862e-07 2.98356e-08 8.44321e-09
1.43115e-07 3.21188e-08 8.91431e-09
1.11763e-07 4.2734e-08 7.50714e-09
-7.66203e-08 3.23225e-08 1.3427e-08
-9.29063e-08 2.05539e-08 -1.04569e-08
-9.59523e-08 2.1723e-08 -1.38116e-08
6.00701e-08 5.03483e-08 -7.53002e-09
-1.00002e-07 1.57637e-08 -1.81707e-08
-1.01202e-07 1.65316e-08 -1.85709e-08
1.37263e-07 -2.00857e-08 1.56944e-09
1.54302e-07 -2.08939e-08 6.54087e-10
1.38295e-07 -1.86348e-08 5.49735e-09
-7.30175e-08 3.98e-08 -2.89347e-08
-7.67048e-08 3.60101e-08 -2.86127e-08
-3.40228e-08 -3.09763e-08 8.6615e-10
-3.49257e-08 -3.24093e-08 4.8335e-10
-4.60022e-08 -1.26391e-08 -4.23768e-11
1.90935e-07 7.54027e-09 -3.63157e-09
-3.40269e-08 -2.73375e-08 1.65949e-09
1.87843e-07 8.73554e-09 -2.7038e-09
-7.20779e-08 3.98836e-08 -3.07823e-08
4.3986e-08 6.82012e-08 4.86832e-09
5.38724e-08 6.52147e-08 8.51195e-09
4.54973e-08 6.92807e-08 7.11144e-09
1.19001e-07 3.97194e-08 3.8185e-09
8.5242e-08 5.95675e-08 1.88515e-08
1.21332e-07 3.94781e-08 4.75026e-09
1.14553e-07 3.48286e-08 -4.40034e-10
3.67042e-08 -3.26951e-08 -1.01696e-08
-7.18394e-08 -2.63323e-08 -3.87869e-09
-7.11434e-08 -2.60874e-08 -3.87353e-09
-3.2066e-08 5.10887e-08 1.35129e-08
-2.57828e-08 5.62864e-08 1.34379e-08
-2.64053e-08 5.30104e-08 1.32716e-08
1.12462e-07 4.09598e-08 -2.08082e-08
-5.78984e-09 7.01291e-08 -1.37695e-08
-4.82678e-09 7.09091e-08 -1.55232e-08
1.10753e-07 3.59739e-08 -1.44772e-08
5.82374e-08 5.64875e-08 -1.09023e-08
5.24099e-08 5.60133e-08 -7.92524e-09
4.71726e-08 5.89262e-08 -7.21974e-09
1.51537e-07 2.55317e-08 3.89522e-09
1.53534e-07 2.49368e-08 4.5472e-10
1.04874e-07 4.52903e-08 8.61664e-09
9.53987e-08 4.84266e-08 9.87785e-09
9.58562e-08 4.89449e-08 1.15516e-08
3.43277e-08 -3.29732e-08 -5.51903e-09
4.03066e-08 -3.04794e-08 -5.47144e-09
3.83464e-08 -3.32085e-08 -6.07316e-09
2.05297e-08 -3.77219e-08 1.58767e-08
2.09849e-08 -3.59226e-08 1.46604e-08
2.66056e-08 -3.59157e-08 1.60936e-08
-5.09861e-08 4.78223e-08 1.60068e-08
-4.84871e-08 4.97042e-08 1.74652e-08
-4.85717e-08 5.32733e-08 1.65855e-08
1.16344e-07 3.45264e-08 -2.90208e-09
1.16004e-07 3.56763e-08 -2.07455e-09