# vtk DataFile Version 2.0
S, Created by Mohamad Ibrahim Cheikh
ASCII
DATASET UNSTRUCTURED_GRID
POINTS 17222 double
-216.981 7.1487 -43.9178
-201.868 27.908 -44.4524
-44.1964 -83.5154 23.0224
-45.7363 -83.9637 20.9284
-115.782 -38.7368 67.8396
-112.965 -40.468 67.4091
-166.048 -60.2251 -27.2264
-202.521 25.0058 -45.7959
-206.379 50.2639 -1.71633
-205.922 50.5072 1.22093
-30.9571 84.7316 -21.1476
-28.226 85.2018 -19.6752
-143.386 42.5853 -58.4242
4.14464 16.3222 -86.4609
-145.977 41.0175 -58.7593
-218.692 -12.1197 41.7338
-216.832 -14.5366 42.1484
-227.128 8.58497 -36.803
-228.139 6.15344 -36.523
-131.329 -31.2125 -68.2509
3.62702 -5.87619 87.7944
-131.262 -33.6813 -67.083
-160.207 -16.4776 65.804
1.6857 -1.3636 87.9875
-158.894 -13.8349 66.7948
-143.263 -36.2346 -62.596
-142.096 -39.1194 -61.1689
-159.71 43.3586 52.3563
-157.259 44.4759 52.3271
-7.76939 9.65406 -87.4266
1.27944 8.41226 87.5959
-220.248 5.98724 42.0611
-219.743 3.14994 42.6883
-224.683 38.424 -9.3283
-160.357 17.1617 65.5838
-226.251 37.0272 -10.2878
207.876 -35.6715 -34.3664
210.764 -34.3799 -33.5184
-172.759 59.9835 22.1805
-172.468 58.8321 25.319
-161.515 31.285 59.761
-159.206 32.9448 59.6277
-184.56 -13.5509 58.2244
-15.8122 9.64327 -87.2949
-182.182 -15.3711 58.6876
-217.358 44.2698 0.0274376
-215.234 45.5034 1.32369
223.513 -29.6709 -27.3364
-224.742 39.0477 -5.9532
-222.442 40.7117 -5.35237
-221.216 41.7527 -3.06737
238.271 -0.288468 -28.1631
237.505 -2.78057 -28.8125
-9.74536 -8.37907 87.5338
224.986 -27.4512 -28.163
-183.173 -33.9458 -49.8384
-213.19 6.22026 -46.2696
-179.739 -35.2252 -50.4772
-179.883 29.6398 -53.8879
-218.751 -40.3676 15.9978
-215.81 -42.3505 15.7598
-214.016 -42.4579 18.2663
-149.754 68.8263 16.1649
-150.203 68.0596 18.7014
-226.464 16.9808 -34.3028
-225.052 19.8123 -33.92
-220.209 41.612 -8.69257
-217.577 43.2941 -8.5917
-187.282 25.7687 -52.7806
-185.165 27.3228 -52.9131
-153.457 66.8333 19.8542
-156.414 66.379 18.507
-192.415 -14.6348 54.745
-189.89 -13.1845 56.1741
-127.442 -63.5625 -41.4169
-127.946 -65.1419 -38.6822
-182.27 27.4153 -54.0829
-182.087 24.782 -55.413
-164.723 21.966 62.7654
-167.444 20.7599 62.2928
-187.455 -0.882558 58.6609
5.06219 2.74747 87.9393
-188.94 -3.0746 58
-118.648 -67.6717 -37.9613
-115.673 -68.0591 -38.3902
-173.33 -34.9621 53.3239
-194.11 52.4925 -19.3779
13.9072 0.986011 -87.8598
-174.222 -32.2574 54.6562
-201.611 5.54601 -52.3146
-203.501 3.02123 -51.6206
-172.579 -32.3219 -55.2528
-169.893 -31.2272 -56.8779
-179.555 45.3083 41.761
-180.246 43.0961 43.6936
-161.056 8.01433 -67.1121
-160.591 5.0224 -67.5378
-114.037 -69.5419 -36.2737
-233.402 32.1335 -6.46955
-239.663 -25.3139 8.42661
-240.64 -24.98 5.50797
-236.847 -4.05814 -29.3192
-235.693 -7.38846 -29.8032
-145.903 66.8088 -25.9679
-147.384 67.2724 -23.643
-146.418 61.3955 36.7409
-147.087 62.9151 33.7185
-199.638 42.6436 -32.3422
-196.939 43.9702 -32.5911
-148.741 60.0175 37.8585
-215.17 30.1713 -34.1382
-207.284 -37.1258 33.2455
-208.983 -38.3593 30.4225
-136.392 71.4806 -18.8937
-135.853 70.8127 -21.6789
-207.145 32.5437 -37.8356
-205.078 34.6754 -37.3169
-165.292 63.4346 19.3666
-167.361 63.293 17.5718
-213.946 43.0322 -16.9767
-215.429 41.2444 -18.9979
-213.507 32.3657 -33.3979
-210.621 33.169 -34.8234
85.1693 -32.5105 -76.151
-167.524 -45.6498 47.1609
-170.722 -45.0495 46.3269
-221.881 34.3176 23.2149
-224.491 33.489 21.2712
-224.848 25.5143 30.0555
-223.812 28.0393 28.7233
-178.772 57.3633 -23.2516
-239.529 10.9359 -24.4965
-177.01 58.8098 -21.1974
-173.868 59.8496 -21.4695
-192.913 33.6628 -45.3268
-199.098 30.4612 -44.3054
-195.686 31.2865 -45.5734
-206.091 39.9353 -30.8079
-219.694 28.9 -31.6173
-209.133 38.5012 -30.1156
-210.641 36.2294 -31.6104
-242.249 7.34071 -22.4802
-140.873 -42.7552 59.0451
-121.248 -71.4848 28.8803
196.037 1.66619 -55.1015
-202.162 -15.4276 50.023
-200.115 -13.7713 51.4929
-205.578 18.2157 47.3075
-207.772 16.0619 46.9127
-118.299 -72.3713 28.1606
-162.373 30.7046 -59.7774
-160.234 27.189 -62.14
-163.114 27.7792 -60.95
17.3977 -16.7698 86.1726
14.3275 -15.9088 86.4047
-187.089 35.5303 -46.8639
-183.754 36.4228 -47.7853
-239.904 -17.4946 19.7889
-238.77 -20.363 18.6932
-228.26 9.07131 35.8161
-226.285 7.71204 37.6232
-184.574 -38.4604 -45.7592
23.6826 9.15082 87.1298
-181.985 -39.3648 -46.2567
-195.532 -28.3294 47.5458
-198.253 -27.5404 46.6208
-115.25 12.2499 -77.2513
-116.565 17.0212 -76.0972
-207.516 25.8396 -42.4749
-207.906 23.4448 -43.6156
-117.409 14.1993 -76.516
-239.518 17.8799 20.0158
-230.27 30.894 -17.257
-228.243 33.0948 -16.4549
-215.516 35.0376 -28.8067
-239.335 15.4681 22.1763
-237.694 20.5398 20.124
-228.001 -7.89435 -36.2932
-165.8 -40.0552 -52.6689
-167.589 -37.7383 -53.6769
-176.405 47.2808 41.2145
-173.413 47.3636 42.6491
-232.317 -10.984 -31.8686
-157.099 29.1175 -62.246
-228.507 -10.3141 -35.2827
-142.709 -70.149 -18.1582
-242.859 9.6274 -20.7431
-230.11 -11.818 -33.4901
51.3216 -60.3555 -61.4715
-224.572 3.74904 39.4395
-224.207 0.806096 39.861
53.117 -82.5272 -24.2454
55.7889 -82.1234 -24.8736
-101.56 -80.5004 -0.945267
-103.9 -80.1049 -2.35181
54.6672 -60.2259 -61.2451
-105.58 69.4856 -39.3829
-103.811 68.4155 -41.7602
-100.518 69.3278 -41.2388
-237.113 15.7754 24.7346
-218.676 25.6203 -35.1151
-205.995 5.29819 50.2068
-237.705 12.8236 25.7254
-25.5836 -69.1572 -53.6764
181.138 53.1735 29.9917
-27.3038 -67.0525 -56.1844
-218.255 21.8074 -37.9004
8.17058 -10.9837 -87.265
-235.227 17.819 25.5379
11.3294 -10.9613 -87.2246
42.5126 2.95339 -86.6834
39.8582 4.61195 -86.7654
59.0278 -60.654 60.3201
3.17732 -13.1983 -86.9975
55.9944 -60.2037 61.12
87.2409 51.9018 64.1747
88.5846 49.8269 65.5785
92.3328 -49.8565 64.9197
89.269 -51.1311 64.4513
-147.495 -69.9593 -13.6476
-144.671 -70.765 -13.1862
212.665 44.1528 -16.0452
213.547 44.5994 -13.1062
-142.675 -70.8258 -15.3456
-192.779 -23.6247 -51.3412
-195.005 -24.487 -49.8871
-201.846 22.563 47.4011
118.999 73.3689 25.0457
121.343 72.3534 26.5765
-9.81189 87.1353 11.8174
-11.6498 86.7518 14.1956
-178.264 -55.5027 27.8005
-174.712 -56.6697 28.2033
-200.155 24.333 47.4035
-226.885 4.34507 37.7197
-228.775 2.59764 36.4619
-228.459 -0.303005 36.7948
-214.775 17.8234 -42.176
-208.991 35.259 -33.9617
-73.4976 76.9546 34.068
-190.947 -25.3971 -51.3328
-191.846 -27.6253 -49.7473
-74.7216 75.7638 36.3357
-213.635 40.3481 22.9853
-215.529 40.1921 21.009
-81.8818 83.1141 3.8981
-81.0734 83.0272 6.76419
-77.735 74.9429 37.2525
179.98 38.4226 -47.9773
17.6624 -85.582 -19.5329
14.3689 -85.7508 -19.1186
-106.209 -75.8459 -24.7051
-136.323 56.1695 -48.1013
-223.228 31.3164 -25.7392
-221.69 33.4915 -24.6031
-216.157 1.4439 44.9607
-213.626 2.31415 46.3833
-202.856 -13.9777 -50.1052
-6.49225 -8.49308 87.5597
-131.711 73.6707 -13.8823
-134.556 72.8901 -14.6423
-109.759 -75.2253 -24.7028
-110.828 -74.1105 -27.3468
-228.678 -24.4578 -27.267
-226.564 -26.2226 -27.7823
214.252 -35.549 -29.3298
211.672 -36.1874 -30.8057
-210.034 -19.4072 44.3445
216.425 -33.1698 -30.1523
-192.176 -50.1858 -26.5295
-189.148 -37.2284 -44.4731
-192.238 -36.4815 -43.4581
-193.473 -50.9392 -23.7994
66.7539 74.9373 -39.7849
69.6065 73.9387 -41.0351
-196.662 -49.7383 -23.1299
-171.637 -59.7982 -23.695
37.0685 -85.5965 -15.7803
34.7126 -85.4761 -17.0387
-171.39 -58.6582 -26.5874
-137.996 38.1616 -62.8988
-108.183 -0.0540363 79.4425
-111.046 -1.48191 78.9435
-113.334 -78.5192 2.4851
-112.662 -78.6734 -0.723403
-211.679 -15.6097 -44.8827
-168.475 -58.642 -28.8108
22.5529 -81.9622 31.0471
20.8014 -82.8716 28.6937
-138.491 18.8105 -71.0069
-140.085 16.1401 -71.2807
89.248 69.9396 -43.3275
90.5951 71.4582 -40.4089
-29.2883 -85.8961 -16.1506
-32.1867 -85.6022 -17.0124
-233.144 -7.52866 -32.1318
-135.74 20.0988 -71.3037
-137.503 -50.4403 53.712
-134.343 -50.2141 54.8901
-218.932 41.8542 11.1351
-220.187 40.3176 13.5203
-224.1 -3.07676 -39.8244
13.2209 -62.2467 -62.0318
10.4545 -61.482 -62.8537
-70.5817 83.3914 -13.4147
-73.7033 82.8917 -14.4189
-162.707 -32.0352 58.9626
-161.82 -27.3641 61.5571
-163.439 -29.4226 60.066
-46.1881 -57.7987 -64.3593
-44.819 -55.4668 -66.4944
198.309 47.7197 25.5356
197.524 49.434 22.8818
-41.5777 -55.4732 -66.7463
-156.202 37.964 -57.5809
-153.253 38.9009 -57.9244
-197.333 53.9958 7.80953
-227.257 37.4383 -4.4007
-229.198 35.7685 -5.75472
-231.679 33.8864 -4.92193
-241.835 15.7754 -18.3002
29.5297 10.304 86.7817
26.0125 11.3648 86.7871
-243.635 14.1061 -16.6666
-213.661 -0.553807 -46.4179
207.877 -13.3403 47.7018
-31.6316 -14.3479 86.1141
205.019 -14.3063 48.9205
-216.155 0.00872552 -44.9853
-229.405 -5.22679 -35.6872
18.931 87.1331 -10.3896
20.8099 86.7623 -12.7784
23.6273 86.8241 -11.7143
-214.615 -20.6551 -40.9666
-31.421 -80.6997 -33.3269
-30.5985 -79.6296 -35.8956
-214.868 -17.9194 -42.0775
-212.207 -21.9173 -41.8375
-151.147 -31.6548 62.8091
-240.287 -1.19172 -25.9564
-127.379 75.6637 -5.70219
-126.294 76.0517 -2.71082
186.605 47.8502 -34.5129
186.294 49.8188 -31.8292
-215.35 4.75444 -45.2065
-239.311 -4.17754 -26.7394
-229.368 -15.4025 -32.6453
-240.82 -24.5962 -6.22668
-243.911 -21.2593 -2.89172
-242.992 -21.885 -6.0105
130.824 53.372 -52.9155
130.216 55.2435 -51.1487
-88.1912 -48.5936 66.5615
-111.066 51.6713 59.6976
-109.704 49.9397 61.4538
40.2572 -76.0615 41.9551
38.2004 -75.152 43.7894
-217.991 -2.50928 -43.8156
-217.292 -7.63154 -43.6474
-55.8458 -83.6016 -19.3117
-52.9028 -84.1075 -18.0909
-216.632 -4.70503 -44.4551
-201.125 -27.2804 -45.247
81.8518 -76.181 -33.4694
-195.007 -27.0571 -48.5404
36.229 -86.2566 -11.9626
33.5921 -86.4874 -11.2152
-197.128 -28.4988 -46.6288
-7.94021 16.2561 86.4408
-5.4023 14.5207 86.7731
-153.702 46.9038 -51.4948
-203.409 51.4401 -5.68488
-200.658 52.5888 -6.99422
-236.661 7.3999 -28.8459
-148.639 -30.2478 64.2195
-145.749 -31.4646 64.4454
-152.11 19.3927 -67.3438
-148.699 24.3358 -66.6684
-151.416 22.355 -66.6133
-106.561 3.33983 79.6405
-107.909 5.66522 79.2861
-168.881 9.43831 -64.522
-13.9033 59.5735 64.5858
-112.269 63.4805 -46.5948
-115.924 62.5424 -46.7672
-201.465 11.2117 -51.4693
[...]
POINT_DATA 17222
VECTORS F double
3.90513e-08 1.28791e-07 -2.65768e-09
1.07578e-07 1.11454e-07 1.01613e-08
-2.23909e-07 1.53726e-08 3.13957e-09
-2.23999e-07 1.5553e-08 2.46592e-09
-1.1309e-07 8.82518e-08 2.67618e-08
-1.14157e-07 8.47787e-08 2.74739e-08
-1.62753e-07 6.99913e-08 -3.32975e-08
9.51552e-08 1.12951e-07 1.01552e-08
1.82729e-07 9.20589e-08 5.93975e-09
1.83251e-07 9.13113e-08 6.62852e-09
3.30294e-07 2.12563e-08 2.59715e-08
3.35979e-07 1.8833e-08 2.25435e-08
1.44591e-07 9.85303e-08 2.8373e-08
2.18655e-09 4.00089e-08 7.56575e-09
1.42658e-07 9.97847e-08 2.62654e-08
-3.74631e-08 1.18696e-07 1.04353e-08
-4.2965e-08 1.13764e-07 1.21753e-08
4.51007e-08 1.32703e-07 -3.12172e-09
3.46393e-08 1.35761e-07 -3.6176e-09
-8.09715e-08 1.16121e-07 -3.40291e-08
-6.79029e-08 2.24358e-08 1.84514e-09
-9.11235e-08 1.1416e-07 -3.54883e-08
-4.41543e-08 1.0505e-07 1.31439e-08
-5.73982e-08 2.71192e-08 5.54907e-10
-3.3185e-08 1.01926e-07 1.14466e-08
-9.27723e-08 1.10348e-07 -3.78814e-08
-1.02243e-07 1.0504e-07 -3.80973e-08
1.4626e-07 8.21757e-08 -1.34301e-08
1.46255e-07 8.40789e-08 -1.76504e-08
-1.47872e-08 5.58321e-08 6.32615e-09
-3.42534e-08 3.08211e-08 -2.89863e-09
2.90857e-08 1.20739e-07 1.4601e-09
1.80498e-08 1.18318e-07 2.64497e-09
1.51878e-07 1.1029e-07 6.41966e-09
6.04968e-08 1.00546e-07 -8.20049e-09
1.47742e-07 1.12672e-07 7.72546e-09
-9.01984e-08 -6.87417e-08 4.55515e-09
-8.87793e-08 -6.97036e-08 3.14893e-09
2.03173e-07 7.21992e-08 -1.50874e-09
1.98927e-07 7.16267e-08 -5.33939e-10
1.06533e-07 9.51143e-08 -1.45417e-08
1.11692e-07 8.96908e-08 -1.30441e-08
-3.35539e-08 1.04857e-07 1.13824e-08
-1.25421e-08 6.53657e-08 7.49892e-09
-3.48651e-08 1.02112e-07 1.3494e-08
1.67954e-07 1.00956e-07 6.10822e-09
1.71173e-07 9.89972e-08 4.47303e-09
-8.13669e-08 -7.79766e-08 3.18424e-09
1.54229e-07 1.09775e-07 7.18873e-09
1.57919e-07 1.06497e-07 6.53245e-09
1.62402e-07 1.05753e-07 5.55489e-09
-2.17732e-09 -9.75782e-08 -1.25614e-09
-1.02552e-08 -9.5646e-08 -1.11948e-09
-7.28605e-08 3.74677e-08 2.59345e-09
-7.60299e-08 -8.06659e-08 4.26514e-09
-9.04425e-08 1.07694e-07 -3.26561e-08
3.53622e-08 1.25975e-07 -3.01269e-09
-9.04158e-08 1.06019e-07 -3.4568e-08
1.05652e-07 1.0789e-07 1.61638e-08
-1.32863e-07 9.09776e-08 7.14127e-09
-1.34572e-07 8.67419e-08 7.48379e-09
-1.3531e-07 8.76565e-08 9.65181e-09
2.31719e-07 6.11855e-08 2.30525e-09
2.27413e-07 6.07481e-08 2.5406e-09
7.35478e-08 1.29807e-07 4.81089e-09
8.48374e-08 1.25373e-07 4.31559e-09
1.60927e-07 1.05842e-07 7.555e-09
1.64219e-07 1.02613e-07 7.92516e-09
9.56037e-08 1.11667e-07 1.29862e-08
9.8762e-08 1.0929e-07 1.4121e-08
2.24459e-07 6.29168e-08 6.12207e-10
2.22347e-07 6.33888e-08 2.71419e-09
-3.65369e-08 1.05766e-07 1.25517e-08
-3.42069e-08 1.05858e-07 1.06887e-08
-1.72112e-07 6.86326e-08 -4.04915e-08
-1.76833e-07 6.69576e-08 -4.11493e-08
1.00266e-07 1.11947e-07 1.5376e-08
8.87351e-08 1.1087e-07 1.38853e-08
7.55892e-08 1.02123e-07 -1.14524e-08
7.46474e-08 1.00994e-07 -9.09139e-09
4.69789e-09 1.06173e-07 3.43539e-09
-4.81995e-08 2.40613e-08 -4.12029e-10
-2.72941e-09 1.09453e-07 4.71362e-09
-1.83817e-07 6.10793e-08 -3.85446e-08
-1.83154e-07 6.03048e-08 -3.93458e-08
-9.62122e-08 8.98917e-08 2.06493e-08
1.83793e-07 8.73064e-08 1.11e-08
-3.69352e-08 1.96003e-08 -4.95834e-10
-8.60617e-08 9.38208e-08 2.17856e-08
3.51633e-08 1.21183e-07 -3.74397e-09
2.66947e-08 1.25716e-07 -5.52647e-09
-8.19087e-08 1.08335e-07 -3.20518e-08
-8.11631e-08 1.11598e-07 -3.15887e-08
1.5667e-07 8.17883e-08 -6.26419e-09
1.46098e-07 8.25944e-08 -7.67743e-09
3.66473e-08 1.27144e-07 4.41579e-09
2.57449e-08 1.24843e-07 1.78913e-09
-1.88711e-07 5.68017e-08 -3.62628e-08
1.34783e-07 1.20907e-07 5.20318e-09
-1.02365e-07 1.19024e-07 1.11087e-09
-1.01486e-07 1.19541e-07 -6.92343e-10
-8.50918e-09 1.4136e-07 -1.11506e-08
-2.13453e-08 1.36199e-07 -1.30982e-08
2.25683e-07 6.76047e-08 1.86856e-08
2.26589e-07 6.78569e-08 2.01434e-08
2.04774e-07 6.42469e-08 -7.44848e-09
2.11114e-07 6.53444e-08 -9.1765e-09
1.54765e-07 9.83492e-08 1.27151e-08
1.56383e-07 9.74653e-08 1.58014e-08
2.01105e-07 6.68083e-08 -9.17802e-09
1.16768e-07 1.14271e-07 1.0887e-08
-1.1351e-07 9.33193e-08 1.75637e-08
-1.16904e-07 9.25388e-08 1.83622e-08
2.41364e-07 6.115e-08 1.80272e-08
2.40536e-07 6.17462e-08 1.7145e-08
1.23752e-07 1.09827e-07 1.15156e-08
1.30003e-07 1.05321e-07 1.03964e-08
2.13806e-07 6.78867e-08 1.05343e-09
2.12708e-07 6.84866e-08 1.34752e-09
1.62574e-07 1.02737e-07 9.57821e-09
1.55951e-07 1.05017e-07 1.14817e-08
1.24824e-07 1.1017e-07 9.0675e-09
1.26726e-07 1.10485e-07 1.13962e-08
-9.32606e-08 -3.63962e-08 2.76818e-09
-1.24535e-07 8.01829e-08 2.34539e-08
-1.24784e-07 7.9372e-08 2.08839e-08
1.33832e-07 1.07795e-07 -2.74514e-09
1.3141e-07 1.08669e-07 -1.29085e-09
1.00253e-07 1.14452e-07 -5.33515e-09
1.10803e-07 1.11739e-07 -3.37521e-09
1.95776e-07 8.12145e-08 1.60747e-08
5.35926e-08 1.43174e-07 -2.40956e-10
2.01343e-07 7.91747e-08 1.3815e-08
2.02873e-07 7.76997e-08 1.54544e-08
1.2075e-07 1.04824e-07 1.49303e-08
1.12561e-07 1.0802e-07 1.23384e-08
1.14479e-07 1.10368e-07 1.5587e-08
1.46986e-07 1.03574e-07 1.38767e-08
1.13252e-07 1.15253e-07 9.00285e-09
1.44834e-07 1.04493e-07 1.04498e-08
1.36788e-07 1.07771e-07 1.19229e-08
3.77583e-08 1.45876e-07 -2.18147e-09
-1.16496e-07 8.47898e-08 2.73686e-08
-1.949e-07 4.65485e-08 1.5039e-08
-1.7486e-10 -7.38605e-08 -2.30964e-09
-4.04689e-08 1.06331e-07 1.27701e-08
-3.84325e-08 1.07457e-07 1.04523e-08
6.84424e-08 1.06236e-07 -4.49258e-09
6.31399e-08 1.09739e-07 -3.3357e-09
-1.94858e-07 4.44856e-08 1.41071e-08
1.08623e-07 1.09757e-07 2.02531e-08
9.79871e-08 1.15885e-07 1.97704e-08
9.61456e-08 1.11915e-07 1.95054e-08
-8.8753e-08 2.71535e-09 2.72225e-09
-8.84417e-08 5.70015e-09 2.84498e-09
1.26632e-07 1.01838e-07 1.53155e-08
1.28554e-07 1.03647e-07 1.84784e-08
-6.99685e-08 1.27976e-07 9.28836e-09
-8.09988e-08 1.23242e-07 7.58337e-09
3.87949e-08 1.2452e-07 -1.2673e-09
3.60689e-08 1.22294e-07 1.4919e-09
-1.04973e-07 1.02398e-07 -3.42258e-08
-3.12053e-08 -6.32739e-10 1.10492e-09
-1.04236e-07 1.01937e-07 -3.65415e-08
-7.93167e-08 1.02085e-07 2.08906e-08
-7.97348e-08 1.01807e-07 1.86283e-08
4.53602e-08 1.24085e-07 1.13912e-08
6.05569e-08 1.23025e-07 1.61612e-08
1.01969e-07 1.14773e-07 8.82906e-09
9.13138e-08 1.15457e-07 8.77116e-09
4.7461e-08 1.26319e-07 1.45251e-08
7.99933e-08 1.35361e-07 -3.72133e-09
1.27647e-07 1.21396e-07 8.79457e-09
1.33993e-07 1.16867e-07 7.49872e-09
1.34034e-07 1.10264e-07 1.13443e-08
6.80603e-08 1.33635e-07 -3.28097e-09
8.95694e-08 1.30171e-07 -3.33455e-09
-1.8308e-08 1.32103e-07 -1.46533e-08
-1.03605e-07 9.96638e-08 -3.58654e-08
-9.82123e-08 1.04895e-07 -3.62059e-08
1.59327e-07 7.90235e-08 -7.1637e-09
1.61254e-07 8.05084e-08 -9.13418e-09
-3.41601e-08 1.32747e-07 -1.52656e-08
9.98678e-08 1.14857e-07 2.28691e-08
-2.98891e-08 1.32943e-07 -1.51635e-08
-1.88843e-07 5.41148e-08 -2.73513e-08
4.821e-08 1.48152e-07 -3.44127e-10
-3.46137e-08 1.327e-07 -1.77095e-08
-1.56767e-07 -1.47213e-08 -1.56995e-09
2.09797e-08 1.22931e-07 2.9401e-09
8.90084e-09 1.20745e-07 3.6878e-09
-1.99185e-07 -1.43624e-08 -4.5384e-09
-1.98429e-07 -1.52442e-08 -4.15773e-09
-2.16007e-07 3.34893e-08 -1.0652e-08
-2.1519e-07 3.45686e-08 -1.35145e-08
-1.56081e-07 -1.49945e-08 -2.3117e-09
2.35902e-07 6.44307e-08 3.62518e-08
2.35603e-07 6.49294e-08 3.4668e-08
2.36684e-07 6.45442e-08 3.78763e-08
6.93714e-08 1.32432e-07 -3.04514e-09
1.01067e-07 1.18931e-07 9.71755e-09
2.47619e-08 1.1318e-07 4.95018e-10
5.57028e-08 1.33948e-07 -3.75468e-09
-1.89937e-07 2.5814e-08 -2.21755e-08
1.06185e-07 -5.83307e-08 2.49001e-08
-1.85677e-07 2.89981e-08 -2.35601e-08
8.86701e-08 1.21583e-07 7.44137e-09
-6.56224e-08 2.33464e-08 -3.69076e-09
7.58681e-08 1.28749e-07 -4.2775e-09
-6.51774e-08 2.06619e-08 -3.63304e-09
-2.69464e-08 -1.2994e-08 -2.0607e-09
-2.56798e-08 -9.96148e-09 -1.97381e-09
-1.63905e-07 -2.58042e-08 -6.30995e-09
-7.0452e-08 2.91499e-08 -4.73735e-09
-1.64456e-07 -2.53458e-08 -6.51992e-09
9.89135e-08 -5.83838e-08 3.07557e-08
9.2546e-08 -6.21424e-08 3.19108e-08
-1.36404e-07 -4.11883e-08 -7.87973e-09
-1.37807e-07 -3.92754e-08 -7.78969e-09
-1.89916e-07 5.3796e-08 -2.44775e-08
-1.89582e-07 5.1856e-08 -2.36372e-08
1.03063e-07 -6.13918e-08 -1.69584e-09
1.04016e-07 -6.13772e-08 -1.36735e-09
-1.91326e-07 5.29255e-08 -2.64866e-08
-6.19971e-08 1.2e-07 -2.67178e-08
-6.19269e-08 1.16425e-07 -2.75109e-08
8.39949e-08 1.04052e-07 -5.739e-09
1.67254e-07 -4.20488e-08 2.58856e-08
1.64588e-07 -4.44143e-08 2.89125e-08
3.55621e-07 5.64006e-09 -5.4368e-09
3.50179e-07 7.12389e-09 -8.35136e-09
-1.5607e-07 6.90081e-08 1.52486e-08
-1.55849e-07 6.70423e-08 1.65099e-08
8.85934e-08 1.01281e-07 -6.1912e-09
2.14305e-08 1.24105e-07 1.4859e-09
1.63144e-08 1.26475e-07 3.52201e-09
3.944e-09 1.2434e-07 4.02221e-09
7.66999e-08 1.23132e-07 4.21587e-09
1.33909e-07 1.06483e-07 9.66344e-09
2.75087e-07 4.01446e-08 -1.80222e-08
-6.47034e-08 1.16343e-07 -2.80944e-08
-7.26418e-08 1.16773e-07 -3.05482e-08
2.67003e-07 4.19439e-08 -2.02345e-08
1.51421e-07 9.89296e-08 -1.35484e-09
1.50499e-07 9.95195e-08 -1.36323e-09
2.95068e-07 3.52437e-08 7.37634e-09
2.96226e-07 3.47801e-08 7.7762e-09
2.64527e-07 4.39552e-08 -2.08467e-08
7.8872e-08 -6.17801e-08 -1.3252e-08
-2.1458e-07 -3.45867e-09 -8.60168e-09
-2.15232e-07 -2.43945e-09 -8.86303e-09
-2.02375e-07 4.44614e-08 -2.99814e-08
1.88431e-07 8.24909e-08 3.09458e-08
1.2505e-07 1.17672e-07 1.03911e-08
1.32415e-07 1.14029e-07 9.14654e-09
1.28049e-08 1.15759e-07 3.81958e-09
1.45277e-08 1.16843e-07 2.36232e-09
-3.11027e-08 1.21978e-07 -1.86111e-08
-7.23592e-08 3.46685e-08 2.70592e-09
2.47938e-07 5.72752e-08 1.59473e-08
2.46227e-07 5.89528e-08 1.64454e-08
-2.02917e-07 4.60106e-08 -2.97287e-08
-1.98077e-07 4.80374e-08 -3.19023e-08
-8.33622e-08 1.2106e-07 -2.2993e-08
-8.61713e-08 1.16657e-07 -2.4073e-08
-9.26469e-08 -7.11247e-08 3.34807e-09
-9.38226e-08 -7.09617e-08 4.43075e-09
-5.67809e-08 1.0859e-07 1.45982e-08
-8.81029e-08 -7.42867e-08 4.29838e-09
-1.42514e-07 8.31887e-08 -3.09762e-08
-1.01384e-07 1.04949e-07 -3.50616e-08
-1.01826e-07 1.04437e-07 -3.25245e-08
-1.43775e-07 8.12815e-08 -3.08764e-08
2.01357e-07 -3.13541e-08 -1.76943e-08
1.99676e-07 -3.40908e-08 -1.99585e-08
-1.43849e-07 8.25863e-08 -2.78516e-08
-1.63514e-07 7.0415e-08 -3.26935e-08
-2.10067e-07 -9.98551e-09 -6.24999e-09
-2.10698e-07 -9.26904e-09 -6.05456e-09
-1.58727e-07 7.17135e-08 -3.29469e-08
1.27955e-07 1.05862e-07 2.98584e-08
-4.42884e-09 1.10818e-07 -6.62979e-10
-3.42278e-09 1.06031e-07 1.40093e-09
-2.10066e-07 3.68293e-08 -9.23467e-09
-2.12088e-07 3.72819e-08 -1.0675e-08
-4.01007e-08 1.24804e-07 -2.02507e-08
-1.59833e-07 7.39765e-08 -3.61444e-08
-2.10225e-07 -8.18398e-09 -2.9088e-09
-2.12361e-07 -7.34346e-09 -2.36079e-09
6.96675e-08 1.19884e-07 1.51229e-08
5.89511e-08 1.25234e-07 1.41725e-08
1.705e-07 -4.12814e-08 -2.36386e-08
1.76711e-07 -4.19639e-08 -2.57038e-08
-2.23662e-07 1.19451e-08 -1.38716e-08
-2.24338e-07 1.32367e-08 -1.46403e-08
-2.05433e-08 1.372e-07 -1.38976e-08
7.0479e-08 1.21189e-07 1.77337e-08
-1.38864e-07 7.2227e-08 2.43046e-08
-1.39165e-07 7.5581e-08 2.7442e-08
1.6058e-07 1.02213e-07 2.34762e-09
1.54319e-07 1.02941e-07 7.20355e-10
2.59215e-10 1.3223e-07 -1.03946e-08
-1.69041e-07 6.85823e-09 -1.1293e-08
-1.69501e-07 8.07051e-09 -1.13461e-08
3.01682e-07 3.39078e-08 1.64508e-08
2.98393e-07 3.56787e-08 1.83721e-08
-8.75985e-08 9.29386e-08 2.09001e-08
-7.34934e-08 9.62468e-08 1.91315e-08
-7.75003e-08 9.64531e-08 2.14286e-08
-1.6705e-07 4.87343e-08 -2.9089e-08
-1.62687e-07 4.8838e-08 -2.73135e-08
9.88777e-08 -6.14817e-08 2.08819e-08
1.05021e-07 -6.02431e-08 1.91569e-08
-1.62074e-07 4.78331e-08 -2.73939e-08
1.32508e-07 1.00842e-07 2.24778e-08
1.33297e-07 1.04636e-07 2.7094e-08
1.895e-07 8.39716e-08 5.6498e-09
1.49861e-07 1.11882e-07 4.32872e-09
1.44985e-07 1.14705e-07 5.9805e-09
1.4048e-07 1.18096e-07 3.49204e-09
7.41338e-08 1.43526e-07 3.78209e-09
-2.71727e-08 -8.15569e-09 2.10039e-09
-2.66262e-08 -4.49371e-09 1.56556e-09
6.81921e-08 1.4555e-07 1.14342e-09
1.44659e-08 1.27204e-07 -9.66992e-09
-4.4942e-08 -8.28782e-08 8.00395e-10
-8.12001e-08 6.03075e-08 6.39647e-09
-4.60483e-08 -8.32494e-08 -7.18404e-10
1.4008e-08 1.26256e-07 -8.21624e-09
-9.83101e-09 1.37097e-07 -1.23424e-08
3.97921e-07 -8.2089e-09 1.99242e-08
4.0176e-07 -8.54971e-09 2.20528e-08
4.0744e-07 -1.09704e-08 1.9301e-08
-5.99083e-08 1.20239e-07 -2.21997e-08
-2.13402e-07 1.8313e-08 -1.97115e-08
-2.11165e-07 1.88131e-08 -1.96965e-08
-4.80971e-08 1.22636e-07 -2.21569e-08
-5.99736e-08 1.19391e-07 -2.53025e-08
-8.40318e-08 9.27373e-08 2.19804e-08
2.26971e-09 1.44947e-07 -9.22777e-09
2.54679e-07 5.33983e-08 1.20249e-08
2.58146e-07 5.29029e-08 1.17418e-08
9.86815e-08 -5.56612e-08 -1.18478e-08
1.05109e-07 -5.50831e-08 -1.08974e-08
3.28114e-08 1.25717e-07 -5.91452e-09
-9.92918e-09 1.40457e-07 -1.10646e-08
-4.84481e-08 1.28539e-07 -1.8971e-08
-9.90682e-08 1.21499e-07 -1.08432e-08
-9.0488e-08 1.28188e-07 -7.96733e-09
-9.24536e-08 1.2843e-07 -1.00207e-08
1.08618e-07 -5.46218e-08 -2.22158e-08
1.15285e-07 -5.29038e-08 -2.12062e-08
-1.45191e-07 7.06262e-08 2.80089e-08
1.64856e-07 7.57841e-08 -2.8044e-08
1.61829e-07 7.46125e-08 -2.52641e-08
-1.95207e-07 -1.48882e-08 -4.05918e-09
-1.95112e-07 -1.41011e-08 -3.36179e-09
5.7883e-09 1.297e-07 -1.09537e-08
-1.3195e-08 1.27704e-07 -1.42861e-08
-2.22802e-07 2.25068e-08 -1.85515e-08
-2.22907e-07 2.08463e-08 -1.71127e-08
2.84427e-10 1.26069e-07 -1.35126e-08
-7.62571e-08 1.13302e-07 -2.68124e-08
-1.81039e-07 -2.39025e-08 2.00022e-10
-7.31479e-08 1.15048e-07 -2.81511e-08
-2.12007e-07 -1.00403e-08 -6.21282e-09
-2.1275e-07 -9.26539e-09 -6.56595e-09
-7.59694e-08 1.13541e-07 -3.00738e-08
-1.181e-08 5.03157e-08 -9.5952e-09
-1.59419e-08 4.37262e-08 -7.43864e-09
1.60954e-07 9.22221e-08 2.51825e-08
1.8551e-07 9.05879e-08 7.0352e-09
1.87933e-07 8.89717e-08 8.86701e-09
3.8159e-08 1.42629e-07 -1.74078e-09
-8.41683e-08 9.63935e-08 2.15511e-08
-8.38522e-08 9.51133e-08 2.32202e-08
6.74125e-08 1.22e-07 1.64899e-08
8.49395e-08 1.17325e-07 1.96322e-08
8.15518e-08 1.19736e-07 1.74875e-08
6.57846e-09 1.06598e-07 -3.39264e-09
1.3251e-08 1.10994e-07 -5.72285e-09
4.32336e-08 1.20131e-07 3.71853e-09
1.66463e-07 7.32604e-08 -6.31877e-08
2.13842e-07 7.46413e-08 3.86092e-08
2.12978e-07 7.32721e-08 3.33544e-08
5.31467e-08 1.1954e-07 5.70327e-10
5.92042e-08 1.19311e-07 1.56883e-09
1.06617e-07 1.11094e-07 1.03592e-08
3.88977e-07 -5.45928e-09 1.81962e-08
3.8598e-07 -2.82625e-09 2.56925e-08
-1.45709e-07 6.95715e-08 2.69042e-08
6.06251e-08 1.22963e-07 4.20268e-09
-4.57796e-08 4.93097e-08 -1.82075e-09
3.85368e-08 1.07444e-07 -1.21927e-08
2.67359e-08 1.11263e-07 -1.09192e-08
7.24105e-08 1.24238e-07 1.52029e-08
7.07947e-08 1.21334e-07 1.62491e-08
7.4621e-08 1.33899e-07 4.80804e-09
-1.18102e-07 9.71231e-08 -3.7447e-08
-7.26113e-08 1.13218e-07 -3.12329e-08
-1.04143e-07 7.68249e-08 -2.02279e-08
-1.04197e-07 7.39775e-08 -2.04607e-08
2.89256e-07 4.36208e-08 -8.00064e-08
2.7127e-07 5.07893e-08 -8.59737e-08
-1.36879e-07 -5.08568e-08 -9.74748e-09
-1.31083e-07 -5.21273e-08 -1.02798e-08
1.42948e-08 -8.66992e-08 1.14114e-08
1.42953e-08 -8.73168e-08 1.28257e-08
-1.57594e-07 6.78796e-08 1.47331e-08
-1.57705e-07 6.83092e-08 1.11689e-08
2.5355e-07 5.5213e-08 1.07485e-08
2.5073e-07 5.55529e-08 1.09599e-08
-7.23944e-08 1.15144e-07 -2.97637e-08
-1.81126e-07 4.94273e-08 2.30804e-08
5.13005e-09 1.47561e-07 1.23113e-09
1.83841e-08 1.50126e-07 1.12911e-10
-1.66804e-07 -2.9382e-08 -7.97003e-09
-1.68123e-07 -2.81288e-08 -7.79448e-09
-1.15353e-07 9.88752e-08 -3.51046e-08
1.67144e-07 7.25909e-08 -6.3472e-08
1.33253e-08 1.36607e-07 -7.01919e-09
2.995e-08 1.36948e-07 -6.3513e-09
2.92328e-07 3.83244e-08 3.02757e-08
2.90747e-07 3.96408e-08 2.90683e-08
8.93414e-08 1.19928e-07 8.37654e-09
9.88049e-08 1.16147e-07 7.4177e-09
-5.39313e-08 -8.99019e-08 -2.73748e-10
-5.7231e-08 -8.79683e-08 -1.88878e-09
2.93444e-07 3.17717e-08 -2.91436e-08
2.97733e-07 2.88126e-08 -2.56587e-08
-6.325e-08 1.01141e-07 1.82389e-08
-6.77276e-08 9.64894e-08 1.89304e-08
-1.17736e-07 9.36346e-08 -3.50353e-08
-1.07227e-07 -5.66462e-08 3.65601e-09
2.03739e-07 7.62411e-08 5.01212e-09
1.46937e-07 1.03109e-07 3.77096e-08
-2.09599e-07 2.83625e-08 1.28018e-08
-2.11678e-07 2.78529e-08 1.27533e-08
-1.01015e-07 -1.34978e-08 8.96571e-10
-1.06403e-07 7.70342e-08 -2.23673e-08
-1.14462e-07 7.52086e-08 -2.34912e-08
-1.90208e-08 1.09436e-07 7.94419e-09
-1.83558e-08 1.04028e-07 9.40216e-09
1.47165e-07 1.05178e-07 4.134e-08
3.59221e-08 -9.97906e-08 1.21988e-08
4.41397e-08 -9.93909e-08 1.19731e-08
1.28706e-08 1.36089e-07 3.08892e-09
-1.06512e-07 -5.62528e-08 3.46274e-09
-1.08513e-07 -5.51747e-08 3.96463e-09
2.20234e-07 6.7985e-08 5.44855e-09
2.21721e-07 6.67957e-08 4.03036e-09
6.50437e-08 9.86958e-08 -9.8439e-09
6.60758e-08 9.96369e-08 -1.21298e-08
2.12679e-08 1.08084e-07 5.84639e-10
2.80925e-08 1.0519e-07 -1.20838e-10
2.48574e-09 1.19262e-07 4.80552e-09
-7.2455e-09 2.54474e-08 3.66071e-09
-4.61811e-09 1.15155e-07 7.06699e-09
1.60503e-07 9.45919e-08 2.11051e-08
1.58623e-07 9.31987e-08 1.69952e-08
1.73228e-07 8.78768e-08 1.71981e-08
1.65094e-07 9.07065e-08 1.95027e-08
1.93429e-07 8.67378e-08 6.0092e-08
1.89581e-07 9.02018e-08 5.9687e-08
-1.49515e-07 -4.54998e-08 5.06057e-10
-5.56816e-08 -2.80572e-08 -1.27416e-09
-1.48328e-07 -4.6025e-08 -8.22665e-10
2.93894e-07 3.7991e-08 2.68855e-08
2.99803e-07 3.53195e-08 2.15401e-08
1.68569e-07 7.49588e-08 -2.04128e-08
1.80336e-07 7.08404e-08 -1.75426e-08
-1.31448e-07 -5.86372e-08 -6.68785e-09
-1.24584e-07 -6.13709e-08 -7.42038e-09
-1.29826e-07 -6.05812e-08 -6.93867e-09
4.87518e-08 -7.34336e-08 2.03617e-08
4.90327e-08 -7.25622e-08 1.86029e-08
5.16615e-08 -7.29245e-08 2.02442e-08
-4.52234e-08 1.06022e-07 1.26535e-08
-1.60116e-08 -9.69931e-08 5.39822e-09
-6.59235e-09 -1.00573e-07 7.45753e-09
-8.42454e-09 -1.00367e-07 6.48842e-09
-1.25236e-07 -4.32075e-08 -6.89383e-09
-1.29459e-07 -4.47925e-08 -8.6047e-09
-1.28876e-07 -4.46169e-08 -7.51887e-09
-1.61833e-07 7.33361e-08 -3.72489e-08
2.05488e-07 7.31123e-08 1.73014e-09
-1.61434e-07 7.12823e-08 -3.81297e-08
-1.84843e-07 4.45975e-08 2.16725e-08
-2.31515e-08 1.19855e-07 -1.50744e-08
1.69033e-07 6.3963e-08 -6.04871e-08
1.49357e-07 6.62925e-08 -5.88158e-08
9.59068e-08 -5.7683e-08 -1.49753e-08
9.28754e-08 -5.73259e-08 -1.40322e-08
3.60472e-07 1.56815e-08 5.48987e-08
3.53262e-07 1.91666e-08 5.76234e-08
-1.54857e-08 1.25402e-07 -1.26939e-08
-1.51737e-08 1.19043e-07 -1.361e-08
1.1923e-07 8.90478e-08 -1.18839e-08
1.64285e-07 7.85416e-08 -9.82358e-09
1.20182e-07 8.98484e-08 -1.43268e-08
1.18829e-07 8.85124e-08 -1.07031e-08
4.60835e-08 -7.96733e-08 -7.19309e-09
3.99196e-08 -7.85229e-08 -6.64342e-09
2.28309e-07 6.63652e-08 1.24017e-08
2.3068e-07 6.65062e-08 1.4569e-08
2.32696e-07 6.42585e-08 1.25927e-08
6.69792e-09 1.2512e-07 -6.43917e-09
-1.23286e-08 1.26161e-07 -1.12873e-08
-5.76301e-09 1.54561e-09 3.99685e-12
1.52382e-07 8.15592e-08 -9.89329e-09
-4.71964e-08 -3.61522e-08 -9.55453e-10
-6.3664e-09 1.24294e-07 -8.01068e-09
3.96907e-08 -6.69548e-08 -1.14938e-08
4.42626e-08 -6.52916e-08 -1.26493e-08
4.46344e-08 -6.37371e-08 -1.13218e-08
2.72242e-07 4.28823e-08 4.23204e-09
2.75402e-07 4.19453e-08 7.20489e-09
2.76858e-07 4.08355e-08 5.63845e-09
7.45941e-08 -7.10816e-08 2.19456e-08
6.77594e-08 -7.17777e-08 2.22915e-08
6.57915e-08 -7.21804e-08 2.11292e-08
1.95582e-07 8.04432e-08 1.60349e-08
1.97248e-07 7.92119e-08 1.77439e-08
-1.59692e-07 9.28963e-09 -1.10578e-08
-1.65072e-07 1.02245e-08 -1.22989e-08
2.03408e-07 7.65834e-08 1.49762e-08
2.21796e-07 -3.49383e-08 3.00658e-08
-2.05887e-07 5.81183e-09 -1.32932e-08
-2.06604e-07 4.28698e-09 -1.23415e-08
2.04653e-07 -3.3135e-08 2.62735e-08
2.06655e-07 -3.3815e-08 2.77236e-08
1.63346e-07 9.41278e-08 3.66164e-08
1.69738e-07 8.88998e-08 3.51126e-08
1.39677e-08 6.29095e-08 1.41436e-08
1.79121e-07 8.8404e-08 3.67451e-08
-9.07017e-08 -6.64369e-08 -6.23094e-09
1.38029e-08 6.62249e-08 1.5088e-08
-8.67222e-08 -6.97145e-08 -6.51975e-09
-7.92323e-08 -6.88507e-08 -5.58387e-09
3.15098e-07 2.779e-08 1.54198e-08
-1.37388e-07 7.42928e-08 2.82059e-08
-1.37831e-07 7.58168e-08 2.78454e-08
3.13247e-07 2.88328e-08 1.39836e-08