# vtk DataFile Version 2.0
S, Created by Mohamad Ibrahim Cheikh
ASCII
DATASET UNSTRUCTURED_GRID
POINTS 17222 double
-218.425 -0.230631 -43.622
-207.563 21.3887 -44.8544
-31.5495 -84.18 23.1488
-33.0513 -84.6564 21.0607
-108.22 -43.0762 66.7426
-105.337 -44.6212 66.2908
-156.008 -64.0173 -25.8069
-207.458 18.4623 -46.1938
-216.596 44.6957 -1.61294
-216.156 44.9662 1.29502
-49.3707 83.16 -23.0214
-46.9712 83.7929 -21.2752
-151.027 36.7972 -59.9785
4.49855 15.3466 -86.6372
-153.532 35.1515 -60.1867
-215.295 -19.0312 41.3147
-213.146 -21.1675 41.6386
-228.919 0.941023 -36.432
-229.264 -1.62619 -36.1408
-125.69 -36.9371 -66.6745
7.6128 -5.6466 87.7782
-125.082 -39.2738 -65.4683
-156.272 -22.3154 65.2392
5.10674 -1.34217 87.9716
-155.564 -19.5421 66.327
-136.98 -41.7761 -60.8403
-135.309 -44.3644 -59.4497
-167.143 38.099 53.5925
-164.689 39.1162 53.7896
-6.34285 7.85319 -87.6208
3.37987 8.29931 87.5998
-220.679 -1.27567 42.1913
-219.553 -3.91544 42.7444
-233.028 31.7601 -9.33125
-162.489 11.1295 66.2392
-234.331 30.2215 -10.3851
212.151 -32.128 -34.6619
214.97 -30.7944 -33.7333
-183.999 55.4648 22.8624
-183.42 54.336 25.9362
-166.454 25.3779 60.8915
-164.447 27.3402 60.7097
-181.29 -19.6044 57.7568
-14.4429 7.29927 -87.551
-178.823 -21.2633 58.1107
-226.659 38.1343 0.109079
-224.729 39.4784 1.52356
227.283 -25.739 -27.5145
-233.212 32.3944 -5.98953
-231.147 34.2677 -5.33083
-230.179 35.3338 -2.97909
238.095 4.48251 -27.9897
237.736 1.92291 -28.648
-5.37731 -8.92558 87.526
228.479 -23.3917 -28.3838
-177.11 -39.6534 -48.2824
-214.436 -0.943425 -45.972
-173.664 -40.8382 -48.8246
-185.363 23.4025 -54.6779
-210.246 -45.6659 15.71
-207.205 -47.4231 15.4469
-205.355 -47.5635 17.8535
-162.732 65.0117 16.5919
-162.899 64.261 19.1233
-229.985 9.43378 -34.3409
-229.302 12.4797 -33.9254
-229.119 35.218 -8.75377
-226.69 37.1142 -8.66369
-192.197 19.3156 -53.3699
-190.257 21.0188 -53.577
-165.983 62.8835 20.4127
-168.818 62.4291 18.9048
-189.024 -20.7579 54.2093
-186.615 -19.3042 55.7467
-117.022 -66.9903 -39.7457
-117.267 -68.5041 -36.981
-187.433 20.933 -54.8151
-186.587 18.4276 -56.0539
-167.777 15.7635 63.6334
-170.459 14.613 63.0323
-186.405 -7.15887 58.6403
7.92877 2.94152 87.9071
-187.448 -9.52284 57.8921
-107.662 -70.7056 -36.4088
-104.709 -71.0509 -36.7891
-166.574 -40 52.4114
-204.476 47.2793 -19.7437
16.3047 1.07876 -87.8082
-167.992 -37.5353 53.6652
-202.827 -1.28434 -52.0167
-204.183 -4.06185 -51.2178
-166.973 -38.0027 -53.7257
-164.305 -37.0558 -55.3691
-187.794 40.0528 42.6859
-187.822 37.8201 44.6616
-162.222 1.0173 -67.2391
-161.125 -1.78053 -67.5454
-102.821 -72.3663 -34.8247
-240.618 24.7908 -6.40739
-232.893 -32.1142 8.4935
-233.947 -31.8007 5.65324
-235.384 -12.0915 -28.539
-233.562 -15.0776 -28.9473
-158.73 62.7279 -26.9176
-160.244 63.1863 -24.6515
-157.565 57.2372 37.7935
-158.621 58.703 34.8929
-208.244 36.8097 -32.8596
-205.634 38.198 -33.2852
-159.654 55.6788 39.028
-221.401 23.4577 -34.5308
-199.707 -42.5017 32.4769
-201.236 -43.7037 29.5977
-150.127 67.7816 -19.7557
-149.543 67.0809 -22.4997
-213.832 26.0666 -38.2952
-212.167 28.4695 -37.7134
-177.201 59.2034 19.8653
-179.209 59.047 18.0409
-222.997 36.8702 -17.2169
-224.064 34.9683 -19.3558
-220.257 25.8807 -33.6853
-217.474 26.6529 -35.2605
90.3236 -29.6657 -76.584
-159.272 -50.1293 46.1007
-162.469 -49.5163 45.3919
-228.874 27.5992 23.8536
-231.353 26.7478 21.8077
-229.684 18.4503 30.7372
-229.324 21.0973 29.3317
-189.847 52.5154 -23.948
-241.685 2.55103 -24.21
-188.428 54.072 -21.7556
-185.364 55.2072 -22.1242
-199.418 27.5724 -45.9893
-205.107 24.1789 -44.8205
-201.785 24.8502 -46.2755
-214.189 33.8042 -31.3771
-225.726 22.1226 -31.8821
-217.111 32.312 -30.478
-218.096 29.8675 -32.0688
-243.437 -1.14285 -22.0739
-133.031 -47.2201 57.8584
-109.56 -73.9882 28.2869
196.014 5.64191 -54.8473
-198.575 -21.6453 49.4751
-196.644 -20.0258 51.0755
-208.379 11.6771 47.8697
-210.252 9.31133 47.3831
-106.605 -74.7676 27.6122
-167.974 24.3696 -60.7925
-165.126 20.5849 -63.1029
-167.924 21.3824 -61.9227
22.4442 -15.6205 86.2457
19.3646 -14.8774 86.4682
-193.932 29.594 -47.5776
-190.682 30.3496 -48.697
-234.769 -24.8517 19.4541
-233.079 -27.4294 18.4528
-229.268 1.53519 36.1419
-227.133 0.291072 37.7859
-177.73 -43.8949 -44.1579
25.3906 10.5131 86.9169
-175.161 -44.7745 -44.5297
-189.721 -34.1475 46.5962
-192.441 -33.3616 45.7928
-116.681 5.68604 -77.7486
-118.901 10.3815 -76.8465
-212.863 19.139 -42.782
-212.611 16.7649 -43.9166
-118.997 7.455 -77.1671
-242.996 9.61723 20.5515
-237.096 23.6013 -17.4528
-235.496 26.0718 -16.5662
-222.803 28.5153 -29.2112
-242.123 7.34839 22.6426
-241.82 12.5727 20.6536
-226.097 -15.303 -35.3718
-158.972 -45.2519 -51.0116
-161.049 -43.2167 -51.9696
-184.808 42.2207 42.1889
-181.906 42.2047 43.7217
-229.478 -18.4092 -30.9496
-162.078 22.5659 -63.3927
-225.909 -17.7248 -34.3744
-131.34 -73.0863 -17.0421
-244.606 0.961077 -20.4409
-227.228 -19.2466 -32.4372
59.9195 -58.924 -61.9063
-224.513 -3.64996 39.4895
-223.476 -6.4035 39.8575
63.7726 -81.5884 -24.2778
66.399 -81.1242 -24.9616
-88.9631 -82.309 -0.502427
-91.3333 -81.9724 -1.80123
63.236 -58.7704 -61.6479
-118.735 65.4632 -41.6237
-116.914 64.3668 -43.9025
-113.651 65.2956 -43.5788
-239.962 7.69435 25.1997
-223.951 18.6781 -35.4228
-206.14 -1.49357 50.391
-239.72 4.73202 26.1925
-14.7747 -70.0304 -53.0379
175.516 56.1571 28.6144
-16.6716 -68.0584 -55.4799
-222.75 14.7429 -38.1046
12.2054 -11.0923 -87.1936
-238.498 9.96621 26.0893
15.3431 -10.9374 -87.1525
44.2096 4.74073 -86.4999
41.5017 6.26538 -86.5672
67.8734 -58.6057 61.1994
7.5166 -13.6303 -86.8982
64.8729 -58.1469 62.0297
81.5687 55.4008 62.1302
83.2543 53.5575 63.4586
99.5463 -46.9301 65.7901
96.5651 -48.3339 65.3161
-136.048 -72.9231 -12.6547
-133.233 -73.6303 -12.2197
207.452 47.1707 -15.8099
208.295 47.6046 -12.8817
-131.165 -73.7169 -14.2644
-188.318 -30.058 -49.9868
-190.545 -30.7728 -48.4964
-205.587 16.0694 48.0741
109.808 75.6044 23.4892
112.29 74.718 24.8494
-29.2716 86.5418 12.2316
-30.7491 86.0767 14.7999
-168.403 -59.475 27.104
-164.848 -60.5267 27.45
-204.173 18.014 48.1224
-226.864 -3.08962 37.8587
-228.442 -4.98065 36.47
-227.442 -7.69268 36.7625
-218.527 10.6642 -42.2341
-216.301 28.9649 -34.307
-88.4476 74.3212 35.5329
-186.337 -31.6236 -49.9297
-186.767 -33.8711 -48.2299
-89.1623 73.0278 37.9162
-221.746 34.1652 23.5942
-223.593 34.0046 21.6084
-98.5398 80.8772 3.75153
-97.7672 80.8097 6.59869
-92.051 72.0659 38.8986
175.926 41.7489 -47.0299
29.4132 -85.2351 -19.3146
26.1504 -85.465 -18.8681
-94.283 -78.1223 -23.5072
-146.69 51.2009 -49.8799
-229.93 24.3387 -26.0578
-228.875 26.7128 -24.8405
-215.657 -5.46731 44.9459
-213.195 -4.66601 46.4487
-200.188 -20.6646 -49.0973
-2.14654 -8.92349 87.5432
-145.826 70.2013 -14.5687
-148.586 69.3168 -15.3683
-97.8151 -77.5831 -23.526
-99.1116 -76.5638 -26.0642
-223.057 -31.1864 -26.0753
-220.803 -32.7316 -26.5268
218.62 -31.9255 -29.5505
216.1 -32.5545 -31.0933
-205.552 -25.7261 43.6955
220.552 -29.3863 -30.4147
-183.249 -54.7693 -25.1614
-182.498 -42.8308 -42.8009
-185.584 -42.0612 -41.9306
-184.459 -55.4594 -22.4173
55.4134 76.6364 -38.6642
58.3519 75.7886 -39.7896
-187.662 -54.342 -21.8934
-161.538 -63.6606 -22.2839
48.4041 -84.9328 -15.6069
46.105 -84.8363 -16.9279
-161.556 -62.5718 -25.1653
-144.56 31.9906 -64.5142
-106.354 -5.67094 79.5425
-109.251 -6.91243 78.9614
-100.956 -80.5479 2.86677
-100.215 -80.7114 -0.289034
-208.493 -22.5127 -43.7631
-158.585 -62.6312 -27.2452
34.023 -81.25 31.634
32.4283 -82.226 29.2256
-141.529 12.1802 -71.7169
-142.503 9.25717 -71.9173
79.7249 72.1488 -41.9569
80.7708 73.6801 -38.9424
-16.7406 -86.4045 -15.6188
-19.6035 -86.1707 -16.4789
-231.037 -15.2633 -31.2401
-138.796 13.3742 -72.1568
-128.557 -54.2631 52.6889
-125.383 -54.1533 53.7279
-227.693 35.5627 11.4886
-228.536 33.9768 13.972
-223.253 -10.54 -39.1245
22.7331 -61.9726 -61.9688
19.9956 -61.241 -62.806
-87.7024 81.208 -14.4071
-90.6614 80.5946 -15.5625
-156.387 -37.1547 58.0454
-156.252 -32.6754 60.7226
-157.636 -34.7628 59.1038
-36.4061 -59.7416 -63.3456
-35.2965 -57.3868 -65.5609
193.162 50.7732 24.4537
192.049 52.4255 21.9089
-32.0803 -57.3303 -65.8121
-163.191 32.0714 -58.7788
-160.269 32.7628 -59.3787
-207.9 48.8705 7.99599
-235.446 30.6423 -4.25554
-237.077 28.8083 -5.72689
-239.26 26.7003 -4.74453
-245.179 7.28228 -18.2021
30.9581 12.0265 86.4987
27.4275 12.9577 86.5101
-246.591 5.475 -16.4123
-213.673 -7.75697 -45.7615
209.818 -9.08721 47.661
-26.477 -16.2351 85.9918
207.01 -10.019 48.9602
-216.159 -7.1354 -44.4132
-227.942 -12.9425 -34.8613
-2.6219 87.1698 -12.0242
-0.781488 86.8111 -14.4136
1.84136 86.9948 -13.2471
-210.319 -27.2779 -39.8032
-19.378 -81.424 -32.6827
-18.6966 -80.3613 -35.26
-211.237 -24.7175 -40.8666
-207.889 -28.4931 -40.509
-145.006 -36.6728 61.8449
-239.393 -9.4881 -25.2512
-141.855 72.4104 -6.09027
-140.964 72.8132 -3.07254
181.529 50.7506 -33.6742
180.86 52.6786 -31.0523
-216.451 -2.41854 -44.7452
-237.785 -12.1673 -25.9525
-225.732 -22.5445 -31.58
-234.313 -31.4821 -5.57777
-237.834 -28.5158 -2.35945
-236.813 -29.1359 -5.39781
124.954 56.4791 -51.4056
123.955 58.2312 -49.7192
-79.1435 -51.7868 65.5382
-119.316 46.9777 61.5966
-117.725 45.3397 63.1785
50.8288 -74.8842 42.6621
48.8161 -73.9711 44.503
-217.475 -9.84901 -43.088
-215.665 -14.7676 -42.7959
-43.1914 -84.6721 -18.6075
-40.2513 -85.1001 -17.4246
-215.812 -11.8155 -43.6143
-195.888 -33.4152 -43.9262
91.3666 -74.6644 -33.8703
-189.921 -33.2301 -47.1562
47.6862 -85.5963 -11.7846
45.0946 -85.8748 -10.9795
-191.883 -34.6327 -45.131
-6.90217 15.1785 86.6474
-4.20958 13.7274 86.9102
-162.478 41.4558 -52.8523
-213.82 45.9831 -5.67335
-211.22 47.2357 -7.11869
-237.923 -0.851019 -28.5098
-142.498 -35.4037 63.2815
-139.604 -36.5285 63.4318
-155.096 12.6063 -68.1177
-152.696 17.7257 -67.6403
-155.247 15.613 -67.4497
-105.354 -2.08466 79.8795
-107.052 -0.0250609 79.6299
-170.479 2.77293 -64.6382
-21.6218 56.878 66.7207
-124.037 58.8973 -48.9029
-127.668 58.0607 -48.7592
[...]
POINT_DATA 17222
VECTORS F double
3.42541e-08 4.11515e-07 -2.31751e-08
2.92026e-07 3.91102e-07 2.10489e-08
-7.26938e-07 2.61324e-08 -2.62674e-08
-7.27742e-07 2.80108e-08 -2.7231e-08
-5.45142e-07 2.86439e-07 7.66509e-08
-5.51943e-07 2.71277e-07 7.52231e-08
-5.86942e-07 1.93508e-07 -4.56148e-08
2.44769e-07 3.87773e-07 2.0397e-08
5.65484e-07 3.33782e-07 -4.76903e-08
5.66349e-07 3.34657e-07 -4.65962e-08
1.25035e-06 1.39009e-07 1.73851e-07
1.27826e-06 1.24991e-07 1.46766e-07
4.02453e-07 4.22904e-07 1.35386e-07
-1.95222e-07 3.36643e-09 -6.44807e-10
3.99616e-07 4.25861e-07 1.23916e-07
-2.54131e-07 4.12644e-07 2.79451e-08
-2.685e-07 3.9731e-07 3.37047e-08
5.41633e-08 4.18846e-07 -3.08494e-08
1.36865e-08 4.22822e-07 -2.9656e-08
-4.19806e-07 3.20017e-07 -8.03965e-08
-4.23895e-07 -1.13433e-07 -2.79586e-09
-4.4782e-07 3.10657e-07 -8.16097e-08
-3.23256e-07 4.03114e-07 4.30875e-08
-3.87165e-07 -9.5895e-08 1.28862e-09
-2.9412e-07 4.01346e-07 3.37934e-08
-4.37408e-07 3.0262e-07 -8.72242e-08
-4.65972e-07 2.84509e-07 -8.24693e-08
3.78642e-07 4.21268e-07 -1.54903e-07
3.77571e-07 4.29778e-07 -1.71006e-07
-2.75106e-07 6.37019e-08 8.14756e-09
-2.9175e-07 -8.18302e-08 9.13091e-09
-4.83651e-08 4.50504e-07 -1.73498e-08
-8.18731e-08 4.36229e-07 -1.15267e-08
4.40619e-07 3.87204e-07 -2.9274e-08
2.65611e-08 4.62803e-07 -6.97826e-08
4.23032e-07 3.94356e-07 -2.10404e-08
-1.55005e-07 -1.41751e-07 1.52359e-08
-1.52146e-07 -1.43124e-07 1.19496e-08
6.44565e-07 3.11575e-07 -1.20778e-07
6.25329e-07 3.1337e-07 -1.1508e-07
2.09202e-07 4.62598e-07 -1.22782e-07
2.27223e-07 4.45697e-07 -1.25362e-07
-2.67984e-07 4.01635e-07 3.33437e-08
-2.71469e-07 1.06464e-07 1.43589e-08
-2.74027e-07 3.9141e-07 3.99805e-08
5.00923e-07 3.64639e-07 -4.25473e-08
5.14187e-07 3.60434e-07 -5.38996e-08
-1.27088e-07 -1.45594e-07 7.66927e-09
4.469e-07 3.88722e-07 -2.79927e-08
4.62188e-07 3.76389e-07 -3.4092e-08
4.78821e-07 3.7852e-07 -3.99908e-08
7.61357e-09 -1.77574e-07 -2.05103e-08
-7.94294e-09 -1.7644e-07 -1.99142e-08
-4.49959e-07 -4.28765e-08 -7.7568e-09
-1.17046e-07 -1.49748e-07 8.05864e-09
-3.88423e-07 3.01894e-07 -7.34986e-08
2.36181e-08 4.00638e-07 -2.17099e-08
-3.89583e-07 2.96327e-07 -7.8203e-08
2.72745e-07 3.99363e-07 5.77272e-08
-4.99128e-07 2.92585e-07 3.26779e-08
-5.04279e-07 2.80925e-07 3.42913e-08
-5.08931e-07 2.84044e-07 4.00334e-08
7.90384e-07 2.67874e-07 -1.00518e-07
7.68613e-07 2.68299e-07 -9.99877e-08
1.53598e-07 4.19867e-07 -1.05995e-08
1.98998e-07 4.11627e-07 -1.32545e-08
4.78298e-07 3.74362e-07 -2.65745e-08
4.91069e-07 3.609e-07 -2.70701e-08
2.41299e-07 4.02226e-07 3.91845e-08
2.50096e-07 3.95333e-07 4.63603e-08
7.54184e-07 2.81199e-07 -1.15455e-07
7.42746e-07 2.7475e-07 -9.52638e-08
-2.67005e-07 3.94562e-07 3.70999e-08
-2.64089e-07 3.99905e-07 3.02457e-08
-6.33127e-07 1.729e-07 -6.31969e-08
-6.41755e-07 1.69257e-07 -6.43872e-08
2.54438e-07 4.12939e-07 5.11779e-08
2.14163e-07 4.0091e-07 4.45192e-08
8.67013e-08 4.72442e-07 -8.90476e-08
8.6293e-08 4.65172e-07 -7.92718e-08
-1.45268e-07 4.28789e-07 -4.18806e-09
-3.47717e-07 -1.10164e-07 7.52601e-09
-1.68703e-07 4.34747e-07 4.6366e-09
-6.59361e-07 1.519e-07 -5.62793e-08
-6.586e-07 1.4898e-07 -5.82286e-08
-4.55263e-07 3.22594e-07 6.9055e-08
5.87497e-07 3.13915e-07 6.7989e-09
-3.40298e-07 -8.92062e-08 -8.83223e-09
-4.27251e-07 3.38481e-07 7.30001e-08
1.85957e-08 3.90503e-07 -1.85196e-08
-1.21571e-08 4.01849e-07 -2.59355e-08
-3.74438e-07 3.06522e-07 -7.4345e-08
-3.77341e-07 3.18399e-07 -7.59993e-08
4.33844e-07 3.90485e-07 -1.32719e-07
3.88128e-07 3.90637e-07 -1.30959e-07
-8.80676e-09 4.45094e-07 9.33519e-09
-4.89089e-08 4.2846e-07 2.98923e-09
-6.70422e-07 1.40839e-07 -5.03213e-08
3.64354e-07 4.24883e-07 -3.1275e-08
-4.07498e-07 3.6308e-07 4.81888e-09
-4.01944e-07 3.62168e-07 8.20323e-10
-1.3034e-07 4.23575e-07 -4.78484e-08
-1.62508e-07 4.02433e-07 -4.90822e-08
7.91362e-07 2.80712e-07 8.28331e-08
7.88816e-07 2.77475e-07 8.34434e-08
6.52631e-07 3.29368e-07 -1.65698e-07
6.77529e-07 3.29051e-07 -1.765e-07
4.74548e-07 3.51418e-07 2.54642e-08
4.79219e-07 3.4925e-07 3.83322e-08
6.32152e-07 3.45589e-07 -1.76427e-07
3.19299e-07 3.86922e-07 1.21995e-08
-4.65899e-07 3.11128e-07 5.64134e-08
-4.71087e-07 3.05884e-07 5.95274e-08
8.64153e-07 2.54653e-07 6.97273e-08
8.62558e-07 2.58052e-07 6.74716e-08
3.51101e-07 3.83984e-07 2.13465e-08
3.77537e-07 3.68132e-07 1.78634e-08
7.00573e-07 2.9173e-07 -1.04333e-07
6.93483e-07 2.87532e-07 -9.76888e-08
4.93074e-07 3.6141e-07 -7.92856e-09
4.64716e-07 3.6529e-07 1.30669e-09
3.5315e-07 3.75161e-07 5.53037e-09
3.59316e-07 3.81854e-07 1.73158e-08
-3.96218e-07 -2.8547e-07 5.33682e-08
-5.24012e-07 2.77536e-07 8.01417e-08
-5.23607e-07 2.77854e-07 7.36496e-08
3.45775e-07 4.21309e-07 -8.12761e-08
3.37872e-07 4.16493e-07 -7.19986e-08
2.10621e-07 4.40276e-07 -7.15899e-08
2.52799e-07 4.35543e-07 -7.12925e-08
6.43446e-07 3.03449e-07 4.0926e-08
6.51469e-08 4.58756e-07 -3.12857e-08
6.7028e-07 2.9773e-07 2.92299e-08
6.74679e-07 2.92529e-07 3.7895e-08
3.42266e-07 3.72189e-07 4.14389e-08
3.11131e-07 3.76845e-07 2.89771e-08
3.1577e-07 3.93034e-07 4.24843e-08
4.3694e-07 3.6268e-07 2.55608e-08
3.07094e-07 3.85948e-07 1.61065e-09
4.30248e-07 3.63393e-07 1.00231e-08
3.94637e-07 3.71394e-07 1.73109e-08
9.90362e-09 4.58613e-07 -3.71183e-08
-5.3164e-07 2.88615e-07 8.58922e-08
-6.90731e-07 1.46108e-07 5.46228e-08
-4.1306e-08 -2.23612e-07 -4.10755e-08
-2.71358e-07 3.91106e-07 3.77661e-08
-2.67506e-07 3.96736e-07 2.94596e-08
8.56998e-08 4.37588e-07 -6.10694e-08
6.79296e-08 4.47514e-07 -5.1038e-08
-6.92523e-07 1.38998e-07 4.90354e-08
2.77505e-07 4.29827e-07 7.84272e-08
2.2723e-07 4.43945e-07 7.20213e-08
2.22346e-07 4.28733e-07 7.42235e-08
-4.87259e-07 -1.8971e-07 -1.8835e-08
-4.85298e-07 -1.78114e-07 -1.73393e-08
3.63839e-07 3.7174e-07 4.96569e-08
3.67758e-07 3.88363e-07 6.57385e-08
-3.33708e-07 4.02717e-07 2.14092e-08
-3.59567e-07 3.85821e-07 1.74642e-08
-1.62191e-08 4.58482e-07 -3.20704e-08
-2.45887e-08 4.54534e-07 -2.15965e-08
-4.24194e-07 2.83048e-07 -7.23339e-08
-2.5826e-07 -2.06406e-07 3.42028e-08
-4.23897e-07 2.80843e-07 -7.82429e-08
-3.89546e-07 3.54939e-07 6.59301e-08
-3.88854e-07 3.55363e-07 5.88264e-08
-4.04832e-08 4.50458e-07 4.03818e-08
2.01834e-08 4.65722e-07 5.90931e-08
2.69769e-07 3.93922e-07 1.1893e-08
2.3079e-07 3.88263e-07 1.14233e-08
-2.68122e-08 4.6714e-07 5.01917e-08
1.22407e-07 4.88146e-07 -5.12315e-08
3.45634e-07 4.1741e-07 -1.04068e-08
3.73909e-07 4.02703e-07 -1.69859e-08
3.82675e-07 3.77077e-07 1.07436e-08
8.51063e-08 4.78397e-07 -4.38356e-08
1.63811e-07 4.73669e-07 -5.35208e-08
-1.47781e-07 3.89399e-07 -5.2817e-08
-4.41729e-07 2.76199e-07 -7.64758e-08
-4.24328e-07 2.9307e-07 -8.27195e-08
4.45163e-07 3.76059e-07 -1.37598e-07
4.51322e-07 3.89264e-07 -1.45864e-07
-1.98722e-07 3.85962e-07 -4.91816e-08
2.28576e-07 4.46418e-07 8.73621e-08
-1.863e-07 3.86096e-07 -4.91865e-08
-6.56646e-07 1.5083e-07 -2.72691e-08
3.71534e-08 4.71584e-07 -3.22623e-08
-2.01518e-07 3.8692e-07 -5.67485e-08
-5.33591e-07 -1.41014e-07 7.09893e-08
-7.55488e-08 4.51915e-07 -1.08165e-08
-1.11276e-07 4.3781e-07 -6.04666e-09
-5.3713e-07 -5.77902e-08 2.14702e-08
-5.32865e-07 -6.28775e-08 3.08109e-08
-7.19507e-07 9.52159e-08 -8.1746e-10
-7.18304e-07 9.80999e-08 -5.23813e-09
-5.32455e-07 -1.49439e-07 7.55955e-08
8.20024e-07 3.23335e-07 2.22133e-07
8.15862e-07 3.2788e-07 2.14715e-07
8.16258e-07 3.27491e-07 2.30068e-07
8.78451e-08 4.81314e-07 -4.45464e-08
2.61566e-07 3.94265e-07 5.43102e-09
-6.89921e-08 4.42735e-07 -2.14312e-08
4.01054e-08 4.76977e-07 -4.12313e-08
-6.80789e-07 2.52865e-08 -1.01696e-08
2.8509e-07 -1.66565e-07 1.12799e-07
-6.80329e-07 2.84823e-08 -9.91068e-09
2.1446e-07 4.00038e-07 1.28753e-09
-4.40479e-07 -7.12228e-08 1.51166e-09
1.13839e-07 4.69929e-07 -5.21017e-08
-4.39009e-07 -8.59936e-08 1.32954e-09
-2.8928e-07 -2.36174e-07 -3.1045e-08
-2.84466e-07 -2.25616e-07 -3.3026e-08
-5.59363e-07 -1.89628e-07 -1.0564e-07
-4.58995e-07 -4.59869e-08 2.35231e-09
-5.61854e-07 -1.93104e-07 -1.09075e-07
3.78385e-07 -3.2521e-07 2.29167e-07
3.46613e-07 -3.48545e-07 2.3849e-07
-4.57356e-07 -2.50743e-07 -9.41384e-08
-4.64352e-07 -2.38637e-07 -9.25415e-08
-6.583e-07 1.53928e-07 -2.05454e-08
-6.58214e-07 1.49012e-07 -1.92456e-08
2.15135e-07 -1.32359e-07 -4.92972e-08
2.15529e-07 -1.28704e-07 -4.89495e-08
-6.62871e-07 1.49375e-07 -2.57053e-08
-2.98952e-07 3.44035e-07 -6.8986e-08
-2.97388e-07 3.34982e-07 -6.95047e-08
1.42267e-07 4.45401e-07 -7.43945e-08
6.73226e-07 -1.64477e-07 1.44087e-07
6.59103e-07 -1.75728e-07 1.63741e-07
1.34603e-06 6.15706e-08 -4.12536e-08
1.31867e-06 6.70588e-08 -5.45873e-08
-5.84847e-07 2.31674e-07 6.34829e-08
-5.85588e-07 2.2503e-07 6.56376e-08
1.58367e-07 4.35892e-07 -8.09062e-08
-7.3183e-08 4.49625e-07 -1.69967e-08
-9.00817e-08 4.54347e-07 -7.0323e-09
-1.25784e-07 4.40262e-07 -3.14848e-09
1.70824e-07 4.10001e-07 -4.688e-09
3.89186e-07 3.70058e-07 1.20184e-08
9.78374e-07 2.32015e-07 -1.87127e-07
-3.07386e-07 3.31852e-07 -6.97352e-08
-3.31111e-07 3.30837e-07 -7.53605e-08
9.37181e-07 2.40489e-07 -1.93372e-07
4.19803e-07 3.94945e-07 -8.88497e-08
4.15668e-07 3.89292e-07 -8.60293e-08
1.13e-06 1.69333e-07 -1.66834e-08
1.13553e-06 1.69581e-07 -1.69544e-08
9.25765e-07 2.55739e-07 -2.05582e-07
1.53961e-07 -2.22657e-07 -1.27144e-07
-6.26744e-07 -2.47561e-08 -7.6039e-09
-6.28763e-07 -2.06361e-08 -1.3218e-08
-6.95093e-07 1.13553e-07 -3.60527e-08
6.0082e-07 3.71978e-07 1.65504e-07
3.42865e-07 3.98194e-07 1.52377e-09
3.74676e-07 3.8863e-07 -4.7312e-09
-9.96386e-08 4.31165e-07 -6.08343e-09
-9.79504e-08 4.40185e-07 -1.08235e-08
-1.97593e-07 3.61565e-07 -5.35419e-08
-4.48917e-07 -5.77718e-08 -7.2364e-09
8.95943e-07 2.37598e-07 4.69427e-08
8.90216e-07 2.45231e-07 5.23338e-08
-6.95696e-07 1.17998e-07 -3.49954e-08
-6.86384e-07 1.22285e-07 -3.9666e-08
-3.43516e-07 3.4443e-07 -5.21738e-08
-3.49906e-07 3.33983e-07 -5.55207e-08
-1.51566e-07 -1.38239e-07 1.20658e-08
-1.54291e-07 -1.40348e-07 1.56562e-08
-3.12911e-07 3.82341e-07 4.48903e-08
-1.41925e-07 -1.44024e-07 1.31527e-08
-5.20391e-07 2.34383e-07 -4.61789e-08
-4.10135e-07 2.9016e-07 -7.62602e-08
-4.09683e-07 2.88304e-07 -6.72055e-08
-5.23354e-07 2.31957e-07 -4.66205e-08
8.57976e-07 -1.28641e-07 -1.04433e-07
8.47229e-07 -1.44202e-07 -1.2255e-07
-5.22193e-07 2.36695e-07 -3.95014e-08
-5.86265e-07 1.97955e-07 -4.52029e-08
-5.80924e-07 -3.92344e-08 -7.07099e-09
-5.86498e-07 -3.92017e-08 8.94407e-10
-5.7401e-07 1.99955e-07 -4.60149e-08
3.23385e-07 4.53632e-07 1.36226e-07
-2.58018e-07 4.20735e-07 -1.2241e-08
-2.55492e-07 4.09418e-07 -7.43792e-09
-7.09165e-07 1.08986e-07 4.63027e-09
-7.11599e-07 1.08164e-07 2.68245e-09
-2.21606e-07 3.67751e-07 -5.99226e-08
-5.78518e-07 2.03273e-07 -5.50166e-08
-6.3833e-07 -6.53369e-08 -8.37606e-08
-6.47367e-07 -6.00871e-08 -8.11115e-08
8.79301e-08 4.56702e-07 5.632e-08
5.15743e-08 4.68059e-07 4.77366e-08
6.78667e-07 -1.90099e-07 -1.69009e-07
7.0764e-07 -1.89366e-07 -1.78592e-07
-7.03545e-07 2.17804e-08 -2.81694e-08
-7.05693e-07 2.4626e-08 -2.59928e-08
-1.62256e-07 4.05582e-07 -5.12464e-08
8.54416e-08 4.69785e-07 6.69528e-08
-5.83601e-07 2.45491e-07 7.84913e-08
-5.84789e-07 2.51489e-07 8.63987e-08
4.6241e-07 3.83768e-07 -6.59239e-08
4.33782e-07 3.86721e-07 -7.17415e-08
-9.25551e-08 3.99823e-07 -4.30505e-08
-6.22692e-07 -6.20447e-08 3.40812e-08
-6.2313e-07 -5.91307e-08 3.33685e-08
1.17045e-06 1.71801e-07 9.60598e-08
1.15741e-06 1.81744e-07 1.15705e-07
-4.44199e-07 3.3788e-07 6.97555e-08
-4.08213e-07 3.55619e-07 6.27592e-08
-4.16737e-07 3.52892e-07 7.14792e-08
-6.65252e-07 8.2469e-08 -3.09677e-08
-6.60189e-07 8.32167e-08 -2.93258e-08
2.33073e-07 -1.44766e-07 7.51764e-08
2.58259e-07 -1.42679e-07 6.42521e-08
-6.58761e-07 7.50497e-08 -2.60631e-08
3.63714e-07 4.12432e-07 1.01404e-07
3.64084e-07 4.35728e-07 1.20105e-07
5.8934e-07 3.17173e-07 -6.24941e-08
4.27915e-07 3.96845e-07 -4.10933e-08
4.07582e-07 4.0449e-07 -3.10268e-08
3.8784e-07 4.1829e-07 -4.05763e-08
1.28759e-07 4.70057e-07 -2.4286e-08
-2.34913e-07 -2.36634e-07 4.31944e-08
-2.32826e-07 -2.24843e-07 4.2715e-08
1.04607e-07 4.77581e-07 -3.31128e-08
-4.4526e-08 3.97245e-07 -4.1883e-08
-9.45038e-08 -1.91708e-07 1.4384e-08
-4.95054e-07 7.33825e-08 -4.80724e-09
-9.61707e-08 -1.96689e-07 9.53348e-09
-4.45272e-08 3.91856e-07 -3.64233e-08
-1.2647e-07 4.07325e-07 -4.99817e-08
1.44982e-06 2.19861e-08 1.20683e-07
1.4477e-06 2.11884e-08 1.18005e-07
1.45476e-06 1.34746e-08 1.13246e-07
-2.78469e-07 3.45796e-07 -5.68337e-08
-6.97906e-07 2.80102e-08 -1.91221e-08
-6.95026e-07 2.84198e-08 -1.9652e-08
-2.42662e-07 3.57944e-07 -6.29317e-08
-2.8007e-07 3.43459e-07 -6.56129e-08
-4.45766e-07 3.3604e-07 7.13042e-08
-1.02897e-07 4.3951e-07 -4.57144e-08
9.25744e-07 2.22832e-07 9.45893e-09
9.4534e-07 2.24275e-07 4.94381e-09
2.17857e-07 -1.73192e-07 -1.17235e-07
2.46035e-07 -1.69322e-07 -1.11804e-07
1.69238e-08 3.99089e-07 -3.15948e-08
-1.32786e-07 4.20556e-07 -4.8217e-08
-2.3994e-07 3.68861e-07 -5.33478e-08
-3.89265e-07 3.59099e-07 -2.47942e-08
-3.69942e-07 3.7951e-07 -2.11923e-08
-3.746e-07 3.7721e-07 -2.39932e-08
3.07047e-07 -2.77107e-07 -2.1308e-07
3.43775e-07 -2.63827e-07 -2.04063e-07
-6.32947e-07 1.94082e-07 5.97808e-08
4.35849e-07 4.11156e-07 -2.10212e-07
4.19489e-07 4.0629e-07 -1.95872e-07
-6.0495e-07 -1.03919e-07 -9.4165e-08
-6.16216e-07 -1.10754e-07 -1.01335e-07
-7.42826e-08 4.00304e-07 -4.55994e-08
-1.3601e-07 3.82895e-07 -4.82113e-08
-7.22025e-07 5.10886e-08 -2.7288e-08
-7.21259e-07 4.73779e-08 -2.74048e-08
-9.02779e-08 3.86212e-07 -4.99372e-08
-3.34595e-07 3.21562e-07 -6.1936e-08
-4.60736e-07 -9.75836e-08 6.29516e-08
-3.30733e-07 3.26419e-07 -6.69411e-08
-5.86765e-07 -3.90197e-08 -7.27636e-09
-5.90823e-07 -3.59304e-08 -1.60654e-08
-3.35697e-07 3.21805e-07 -7.22048e-08
-2.12956e-07 6.84308e-11 -2.08879e-09
-2.24101e-07 -2.19333e-08 2.13549e-09
4.89677e-07 3.84996e-07 1.17677e-07
5.81529e-07 3.26353e-07 -3.81753e-08
5.93132e-07 3.21005e-07 -2.4646e-08
1.71497e-08 4.46844e-07 -3.08626e-08
-4.48977e-07 3.47418e-07 7.05892e-08
-4.50979e-07 3.38686e-07 7.35229e-08
9.67535e-08 4.54847e-07 5.72055e-08
1.57399e-07 4.54995e-07 7.57329e-08
1.5183e-07 4.5806e-07 6.32451e-08
-2.22669e-07 4.13185e-07 -2.51722e-08
-1.99653e-07 4.32862e-07 -3.2725e-08
2.17939e-08 4.2004e-07 1.09819e-08
4.74301e-07 1.45645e-07 -1.05341e-07
7.05989e-07 3.6553e-07 2.21002e-07
7.0569e-07 3.54571e-07 1.95993e-07
8.57359e-08 3.94299e-07 -7.77403e-09
1.08697e-07 3.9404e-07 -5.9032e-09
2.87751e-07 3.79871e-07 1.82497e-08
1.43815e-06 3.15158e-08 1.24024e-07
1.42674e-06 4.13387e-08 1.44927e-07
-6.34873e-07 1.98409e-07 6.05268e-08
1.10398e-07 4.11198e-07 1.30143e-09
-3.61263e-07 4.93965e-09 -5.36998e-09
-1.23934e-07 4.22499e-07 -5.95902e-08
-1.63296e-07 4.27439e-07 -5.14685e-08
1.01299e-07 4.67872e-07 5.31606e-08
9.88455e-08 4.60211e-07 5.94216e-08
1.5041e-07 4.33024e-07 -1.29236e-08
-4.61927e-07 2.6667e-07 -7.60483e-08
-3.75097e-07 3.214e-07 -7.41933e-08
-5.50616e-07 1.63356e-07 -3.0298e-08
-5.52691e-07 1.49874e-07 -2.85332e-08
9.24804e-07 8.73869e-08 -1.15505e-07
8.66776e-07 9.47789e-08 -1.19415e-07
-3.38684e-07 -1.77589e-07 -6.46796e-08
-3.2782e-07 -1.81589e-07 -6.20438e-08
2.13586e-08 -1.86285e-07 4.93838e-08
2.01002e-08 -1.97537e-07 5.63122e-08
-5.84508e-07 2.26234e-07 6.28811e-08
-5.83405e-07 2.28482e-07 5.40176e-08
9.1844e-07 2.30947e-07 -8.18855e-09
9.02972e-07 2.29108e-07 -4.57787e-09
-3.72709e-07 3.29394e-07 -7.19824e-08
-6.88667e-07 1.38406e-07 4.90194e-08
-1.30821e-07 4.80939e-07 -1.30633e-08
-9.51832e-08 4.95191e-07 -2.05558e-08
-5.31529e-07 -1.85855e-07 -1.10706e-07
-5.37843e-07 -1.75497e-07 -1.05203e-07
-4.51103e-07 2.72514e-07 -7.03598e-08
4.7557e-07 1.37417e-07 -1.01154e-07
-5.29439e-08 4.13707e-07 -3.8225e-08
-1.56625e-09 4.26784e-07 -3.9971e-08
1.09049e-06 2.14478e-07 2.03482e-07
1.08936e-06 2.19732e-07 1.95133e-07
2.19144e-07 4.00218e-07 7.06795e-09
2.59447e-07 3.92356e-07 2.73652e-09
-8.45126e-08 -1.62995e-07 1.07029e-08
-9.21036e-08 -1.58491e-07 8.521e-09
1.05686e-06 1.86873e-07 -1.88347e-07
1.0793e-06 1.70395e-07 -1.67316e-07
-3.72904e-07 3.75425e-07 6.03244e-08
-3.87631e-07 3.58877e-07 6.15946e-08
-4.58379e-07 2.57971e-07 -6.7107e-08
-2.15473e-07 -1.52657e-07 3.33325e-08
6.53618e-07 2.94759e-07 -6.68375e-08
3.54249e-07 4.62089e-07 1.75091e-07
-7.32735e-07 6.43825e-08 6.26701e-09
-7.31245e-07 6.31932e-08 5.38644e-09
-5.03762e-07 -2.46732e-07 -3.65471e-08
-5.55592e-07 1.64396e-07 -3.41465e-08
-5.73133e-07 1.57973e-07 -3.54332e-08
-2.73063e-07 4.31517e-07 2.09158e-08
-2.69045e-07 4.13048e-07 2.31799e-08
3.53332e-07 4.71882e-07 1.87766e-07
7.93598e-08 -1.59338e-07 2.65188e-08
9.48374e-08 -1.58719e-07 2.25859e-08
-1.02378e-07 4.66711e-07 -7.71897e-09
-2.10368e-07 -1.44933e-07 2.94383e-08
-2.18742e-07 -1.48597e-07 3.41489e-08
7.3612e-07 2.7745e-07 -7.10823e-08
7.40638e-07 2.74049e-07 -8.0608e-08
4.07417e-08 4.62084e-07 -7.72634e-08
4.06754e-08 4.68813e-07 -8.73662e-08
-9.91891e-08 4.51142e-07 -1.77508e-08
-7.51632e-08 4.4485e-07 -2.41082e-08
-1.35591e-07 4.36286e-07 7.06081e-10
-2.27281e-07 -6.19352e-08 -1.34528e-08
-1.56898e-07 4.20342e-07 7.73342e-09
4.97859e-07 3.61789e-07 7.82851e-08
4.92791e-07 3.47306e-07 5.62644e-08
5.53247e-07 3.37946e-07 6.50673e-08
5.15789e-07 3.46047e-07 7.36354e-08
5.29232e-07 3.80368e-07 2.44599e-07
5.10899e-07 3.97544e-07 2.44405e-07
-2.76416e-07 -1.01968e-07 3.31989e-08
-3.59412e-07 -3.03986e-07 -2.32031e-09
-2.72306e-07 -1.00071e-07 2.52867e-08
1.11581e-06 2.05778e-07 1.83739e-07
1.14967e-06 1.91848e-07 1.54462e-07
4.57164e-07 4.09679e-07 -1.98945e-07
5.15684e-07 3.93559e-07 -1.94527e-07
-2.33497e-07 -1.18519e-07 -2.02858e-08
-2.21476e-07 -1.25375e-07 -2.15929e-08
-2.29015e-07 -1.23257e-07 -2.27214e-08
9.94666e-08 -2.49456e-07 1.17184e-07
1.01646e-07 -2.3604e-07 1.04369e-07
1.05248e-07 -2.31548e-07 1.10278e-07
-3.55785e-07 3.96721e-07 3.93183e-08
-1.67599e-08 -1.67441e-07 2.46066e-08
3.31048e-09 -1.69546e-07 2.73597e-08
3.68569e-10 -1.73398e-07 2.50439e-08
-4.32325e-07 -2.56787e-07 -7.97937e-08
-4.26937e-07 -2.5022e-07 -8.54968e-08
-4.25713e-07 -2.48805e-07 -8.1097e-08
-5.88752e-07 1.98143e-07 -5.58426e-08
6.59371e-07 2.96804e-07 -8.95393e-08
-5.88836e-07 1.92407e-07 -5.78765e-08
-7.05711e-07 1.09686e-07 3.22901e-08
-2.10374e-07 3.77242e-07 -4.42145e-08
5.24093e-07 9.70556e-08 -7.62857e-08
4.6317e-07 8.63208e-08 -6.39731e-08
2.1579e-07 -2.02397e-07 -1.39807e-07
2.06106e-07 -2.04601e-07 -1.34245e-07
1.22585e-06 1.12356e-07 2.30094e-07
1.21584e-06 1.23189e-07 2.32669e-07
-1.82819e-07 4.01982e-07 -4.24501e-08
-1.79746e-07 3.79471e-07 -4.07671e-08
2.63433e-07 4.41686e-07 -1.24955e-07
4.64754e-07 3.91736e-07 -1.53465e-07
2.68204e-07 4.40354e-07 -1.36596e-07
2.6749e-07 4.31521e-07 -1.20233e-07
7.52457e-08 -1.78981e-07 -5.88481e-08
5.99824e-08 -1.78263e-07 -5.71622e-08
7.9108e-07 2.58397e-07 1.62966e-08
8.06771e-07 2.6369e-07 3.45609e-08
8.16609e-07 2.537e-07 1.9307e-08
-8.9647e-08 4.06666e-07 -2.6864e-08
-1.50881e-07 3.97989e-07 -4.06555e-08
-2.07056e-07 -1.65173e-07 -3.72464e-08
4.13678e-07 4.00923e-07 -1.44042e-07
-3.24971e-07 -3.31315e-07 -1.03322e-08
-1.34551e-07 3.95107e-07 -2.86134e-08
2.55379e-08 -2.93854e-07 -1.18915e-07
3.46175e-08 -2.9892e-07 -1.31553e-07
3.6499e-08 -2.84211e-07 -1.22325e-07
1.00973e-06 1.97426e-07 -5.97116e-08
1.02939e-06 1.92946e-07 -3.53261e-08
1.03269e-06 1.88526e-07 -4.2421e-08
1.70904e-07 -1.90958e-07 9.79947e-08
1.47338e-07 -1.94222e-07 1.01757e-07
1.46403e-07 -2.00841e-07 9.89478e-08
6.51885e-07 3.10351e-07 5.32563e-08
6.54522e-07 3.07687e-07 6.57171e-08
-6.18071e-07 -6.30214e-08 3.12792e-08
-6.26632e-07 -6.0026e-08 3.25688e-08
6.8709e-07 2.98319e-07 5.03646e-08
9.5516e-07 -1.39544e-07 1.58902e-07
-6.5399e-07 -1.5328e-08 4.81883e-09
-6.48647e-07 -1.51296e-08 1.70876e-10
8.94138e-07 -1.46979e-07 1.60261e-07
8.94742e-07 -1.44668e-07 1.60666e-07
4.72779e-07 4.36589e-07 1.87156e-07
5.01529e-07 4.13406e-07 1.84109e-07
-1.6633e-07 9.80478e-08 2.18067e-08
5.46085e-07 4.16544e-07 1.9462e-07
-2.26313e-07 -2.11293e-07 -2.65461e-08
-1.667e-07 1.10925e-07 2.52678e-08
-2.14171e-07 -2.2071e-07 -2.58659e-08
-2.06097e-07 -2.21228e-07 -1.91101e-08
1.23483e-06 1.46138e-07 8.19175e-08