# vtk DataFile Version 2.0
S, Created by Mohamad Ibrahim Cheikh
ASCII
DATASET UNSTRUCTURED_GRID
POINTS 17222 double
-216.471 8.70129 -43.9456
-200.536 29.2498 -44.3276
-46.9363 -83.3163 23.0798
-48.4754 -83.7635 20.9757
-117.091 -37.599 68.2037
-114.287 -39.3739 67.7832
-167.984 -59.3753 -27.6359
-201.338 26.3674 -45.6705
-204.138 51.3744 -1.64164
-203.674 51.6092 1.30437
-26.8532 84.9748 -20.8566
-24.051 85.4162 -19.4231
-141.583 43.7744 -58.0826
4.19923 16.9073 -86.348
-144.2 42.2213 -58.443
-219.08 -10.6656 41.8817
-217.287 -13.1421 42.3191
-226.546 10.1852 -36.8338
-227.682 7.79158 -36.5595
-132.255 -29.7635 -68.6779
2.80701 -5.53598 87.8202
-132.314 -32.255 -67.5295
-160.657 -15.1614 65.9857
0.998695 -0.961147 87.9941
-159.21 -12.5581 66.9547
-144.334 -34.8664 -63.0699
-143.285 -37.816 -61.6472
-157.868 44.3651 52.1967
-155.417 45.5054 52.1155
-7.91509 10.4336 -87.3354
0.881252 8.86568 87.5517
-219.831 7.45841 42.0933
-219.459 4.59447 42.7359
-222.819 39.7503 -9.24509
-159.54 18.4062 65.4902
-224.436 38.3818 -10.1888
206.748 -36.5136 -34.3146
209.654 -35.2338 -33.4837
-170.252 60.861 22.1628
-170.011 59.7036 25.3135
-160.147 32.454 59.5882
-157.775 34.0479 59.4734
-184.889 -12.2527 58.3841
-15.9222 10.536 -87.1892
-182.526 -14.1057 58.8742
-215.297 45.4862 0.106707
-213.134 46.6966 1.38297
222.493 -30.6259 -27.3015
-222.848 40.3682 -5.86032
-220.504 41.9934 -5.26749
-219.222 43.0258 -2.99468
238.216 -1.49215 -28.1818
237.351 -3.95905 -28.8292
-10.6203 -7.84223 87.5711
224.031 -28.4395 -28.1147
-184.223 -32.6313 -50.2406
-212.724 7.74087 -46.3023
-180.788 -33.9308 -50.9033
-178.565 30.9415 -53.6923
-220.316 -39.2645 16.1136
-217.395 -41.2998 15.88
-215.609 -41.394 18.4142
-146.896 69.5703 16.1899
-147.397 68.7988 18.7304
-225.541 18.5451 -34.2376
-223.994 21.322 -33.8616
-218.235 42.8855 -8.59653
-215.563 44.5295 -8.49139
-186.089 27.1152 -52.6224
-183.933 28.6412 -52.7418
-150.687 67.5987 19.8603
-153.671 67.1503 18.5382
-192.784 -13.3286 54.9196
-190.229 -11.8757 56.3254
-129.503 -62.7104 -41.93
-130.066 -64.3114 -39.2031
-181.019 28.7656 -53.8959
-180.975 26.1215 -55.2434
-163.727 23.2251 62.631
-166.46 22.0046 62.1881
-187.321 0.426533 58.7182
4.48772 3.1112 87.931
-188.896 -1.72583 58.0732
-120.859 -66.9116 -38.4516
-117.875 -67.3082 -38.8909
-174.423 -33.8421 53.6092
-191.859 53.5437 -19.2461
13.4563 1.30391 -87.8643
-175.189 -31.0897 54.9536
-201.145 7.01062 -52.3586
-203.136 4.54042 -51.6854
-173.524 -30.996 -55.6489
-170.827 -29.8595 -57.2684
-177.602 46.3044 41.6913
-178.418 44.1035 43.6067
-160.559 9.56198 -67.0554
-160.226 6.54429 -67.5137
-116.311 -68.835 -36.7352
-231.741 33.5864 -6.39856
-240.862 -23.8664 8.46388
-241.831 -23.5269 5.52154
-236.909 -2.34961 -29.4442
-235.914 -5.74019 -29.9522
-143.13 67.6228 -25.7494
-144.6 68.09 -23.4059
-143.876 62.1799 36.6511
-144.47 63.7119 33.6078
-197.739 43.8264 -32.189
-195.019 45.1427 -32.4006
-146.243 60.8327 37.7485
-213.728 31.5466 -34.0031
-208.601 -35.9826 33.4928
-210.344 -37.2278 30.6792
-133.424 72.218 -18.6828
-132.895 71.5568 -21.4792
-205.62 33.8645 -37.6948
-203.478 35.9424 -37.1903
-162.656 64.2601 19.3778
-164.739 64.1255 17.5868
-211.954 44.268 -16.8587
-213.517 42.5077 -18.8561
-211.97 33.6915 -33.2856
-209.059 34.4983 -34.6835
84.0009 -32.9331 -76.1283
-168.97 -44.6514 47.4845
-172.171 -44.0631 46.6181
-220.219 35.6188 23.1923
-222.859 34.8007 21.2663
-223.584 26.8996 30.0022
-222.423 29.3904 28.6937
-176.373 58.3414 -23.0608
-238.841 12.6602 -24.4883
-174.543 59.7634 -21.0349
-171.381 60.7857 -21.2869
-191.421 34.9266 -45.1446
-197.706 31.763 -44.1543
-194.269 32.6162 -45.3828
-204.285 41.1815 -30.6392
-218.296 30.2871 -31.504
-207.354 39.7583 -29.9881
-208.958 37.5263 -31.4646
-241.75 9.10016 -22.4936
-142.217 -41.6798 59.4184
-123.587 -70.9022 29.1013
196.013 0.751755 -55.1319
-202.582 -14.1202 50.2009
-200.509 -12.4482 51.6416
-204.685 19.5115 47.2648
-206.943 17.3992 46.8842
-120.638 -71.8151 28.3689
-161.014 32.0313 -59.5309
-158.999 28.5927 -61.8977
-161.903 29.1335 -60.7125
16.3097 -16.6907 86.214
13.2446 -15.7883 86.448
-185.525 36.758 -46.6783
-182.165 37.6716 -47.5618
-240.697 -15.935 19.9258
-239.701 -18.8603 18.8107
-227.728 10.5827 35.8158
-225.785 9.19694 37.6568
-185.803 -37.2112 -46.1809
23.3069 9.19003 87.138
-183.204 -38.1213 -46.7068
-196.421 -27.069 47.8303
-199.149 -26.2847 46.8772
-114.627 13.7803 -77.1068
-115.759 18.532 -75.8945
-206.252 27.2216 -42.3652
-206.77 24.8368 -43.5059
-116.763 15.7538 -76.3325
-238.496 19.5126 19.9843
-228.697 32.3525 -17.1441
-226.595 34.4991 -16.3582
-213.867 36.3643 -28.6668
-238.457 17.0825 22.1496
-236.56 22.1102 20.0967
-228.186 -6.29528 -36.4633
-167.008 -38.8343 -53.114
-168.732 -36.4533 -54.1249
-174.419 48.2441 41.1332
-171.402 48.3455 42.5427
-232.694 -9.37558 -32.0459
-155.841 30.5089 -61.9663
-228.83 -8.70348 -35.4598
-144.972 -69.4901 -18.4936
-242.233 11.4125 -20.7349
-230.49 -10.2112 -33.6973
49.3802 -60.5106 -61.5137
-224.253 5.24448 39.4913
-224.035 2.27791 39.9227
50.6584 -82.6952 -24.317
53.3398 -82.302 -24.941
-104.176 -80.0884 -1.06708
-106.506 -79.68 -2.51136
52.7347 -60.3855 -61.2954
-102.661 70.2567 -38.9571
-100.894 69.1924 -41.3534
-97.5858 70.0996 -40.7938
-236.218 17.3751 24.7111
-217.424 27.053 -34.9923
-205.624 6.68353 50.2277
-236.973 14.4445 25.693
-27.9111 -68.8099 -53.9798
182.443 52.4491 30.2972
-29.5758 -66.664 -56.505
-217.151 23.2724 -37.8055
7.36738 -10.6226 -87.3185
-234.254 19.3753 25.4992
10.5318 -10.636 -87.2771
42.1649 2.8513 -86.7076
39.5295 4.5526 -86.7869
57.0054 -60.9584 60.2513
2.31786 -12.7656 -87.0654
53.9653 -60.5012 61.0496
88.4758 51.1694 64.5547
89.738 49.048 65.9725
90.648 -50.3531 64.827
87.5667 -51.6044 64.3599
-149.77 -69.306 -13.9444
-146.941 -70.1357 -13.4718
213.924 43.3907 -16.0756
214.818 43.8379 -13.1324
-144.969 -70.1818 -15.6692
-193.484 -22.1628 -51.6673
-195.709 -23.0713 -50.2232
-200.766 23.8301 47.3425
121.087 72.8381 25.3677
123.396 71.7927 26.937
-5.36081 87.1928 11.7433
-7.26545 86.8281 14.0858
-180.104 -54.6573 28.0222
-176.549 -55.8479 28.4414
-199.019 25.5673 47.3393
-226.561 5.85522 37.7538
-228.513 4.1352 36.5211
-228.347 1.21163 36.8606
-213.814 19.3059 -42.1212
-207.343 36.5397 -33.8439
-70.063 77.4448 33.8424
-191.685 -23.9794 -51.6769
-192.68 -26.2021 -50.1214
-71.3842 76.2765 36.0835
-211.762 41.5434 22.978
-213.668 41.3945 21.0017
-78.2286 83.54 3.97831
-77.4036 83.448 6.84925
-74.43 75.48 36.9936
180.934 37.6499 -48.1502
15.021 -85.6158 -19.6549
11.719 -85.7722 -19.2435
-108.653 -75.2956 -25.084
-133.993 57.1615 -47.7331
-221.687 32.7318 -25.6083
-220.061 34.8628 -24.4879
-215.936 2.85861 45.0233
-213.382 3.74248 46.4276
-203.189 -12.498 -50.3303
-7.36099 -7.99588 87.5981
-128.661 74.3621 -13.6962
-131.528 73.6016 -14.4501
-112.211 -74.656 -25.0781
-113.218 -73.516 -27.7499
-229.651 -22.9911 -27.5405
-227.572 -24.8111 -28.0686
213.095 -36.42 -29.293
210.5 -37.0561 -30.7556
-210.655 -18.0748 44.5466
215.323 -34.0793 -30.1038
-193.865 -49.1794 -26.9073
-190.334 -35.9496 -44.9037
-193.431 -35.2094 -43.8577
-195.176 -49.9576 -24.1743
69.2564 74.562 -39.966
72.0834 73.5267 -41.2514
-198.367 -48.7414 -23.4667
-173.582 -58.9452 -24.0947
34.4787 -85.7123 -15.8702
32.1156 -85.5825 -17.1278
-173.275 -57.7891 -26.9912
-136.39 39.4406 -62.5377
-108.135 1.36456 79.439
-110.984 -0.125786 78.968
-115.87 -78.0679 2.38429
-115.225 -78.2163 -0.843467
-212.123 -14.0981 -45.1258
-170.375 -57.7427 -29.2561
19.9648 -82.0546 31.02
18.1882 -82.9542 28.6723
-137.587 20.2726 -70.8194
-139.312 17.6693 -71.1034
91.357 69.4247 -43.6165
92.7843 70.9329 -40.725
-32.0301 -85.7416 -16.3332
-34.9371 -85.4314 -17.206
-233.354 -5.86885 -32.2913
-134.825 21.5765 -71.0841
-139.131 -49.525 54.0495
-135.974 -49.2531 55.2676
-216.955 43.087 11.1712
-218.284 41.5596 13.5377
-224.059 -1.4787 -39.9441
11.138 -62.13 -62.1987
8.3666 -61.3477 -63.0229
-66.8502 83.7962 -13.231
-70.0143 83.3177 -14.2127
-163.692 -30.8698 59.2498
-162.63 -26.1573 61.8199
-164.297 -28.215 60.3578
-48.22 -57.1583 -64.7477
-46.7993 -54.823 -66.8603
199.521 46.958 25.7904
198.813 48.6871 23.1155
-43.55 -54.8414 -67.1134
-154.551 39.1808 -57.3104
-151.592 40.1633 -57.5973
-195.005 55.0113 7.8811
-225.416 38.7839 -4.3415
-227.416 37.1476 -5.67543
-229.95 35.3057 -4.87195
-240.898 17.5027 -18.2425
29.201 10.2446 86.8024
25.6924 11.3566 86.7998
-242.769 15.8574 -16.6398
-213.448 0.981784 -46.5308
207.311 -14.3586 47.7077
-32.5895 -13.5229 86.2038
204.44 -15.3299 48.9074
-215.948 1.53365 -45.0806
-229.485 -3.56818 -35.8282
23.9069 87.01 -10.163
25.8417 86.6344 -12.5191
28.7354 86.6654 -11.4894
-215.3 -19.1985 -41.2341
-34.0355 -80.4598 -33.5916
-33.187 -79.3824 -36.1607
-215.41 -16.4353 -42.3433
-212.891 -20.4712 -42.1431
-152.087 -30.485 63.1094
-240.217 0.559057 -26.0569
-124.243 76.3096 -5.5638
-123.114 76.6921 -2.57606
187.807 47.1555 -34.6708
187.576 49.1312 -31.9759
-214.916 6.27111 -45.2743
-239.391 -2.47878 -26.8624
-229.918 -13.8438 -32.8694
-241.985 -23.1219 -6.34171
-244.969 -19.7013 -2.97005
-244.075 -20.3249 -6.11578
132.148 52.6883 -53.197
131.625 54.5804 -51.4186
-89.9159 -47.6691 66.9464
-108.974 52.6083 59.3504
-107.645 50.8643 61.1405
37.8513 -76.2354 41.9137
35.7968 -75.3151 43.7579
-217.882 -0.942838 -43.9432
-217.412 -6.08641 -43.8169
-58.5686 -83.3172 -19.5516
-55.6272 -83.8442 -18.3114
-216.591 -3.18187 -44.6148
-202.006 -25.904 -45.5744
79.6128 -76.4648 -33.4834
-195.848 -25.6563 -48.8852
33.6164 -86.3736 -12.0516
30.9703 -86.5951 -11.3076
-198.004 -27.1187 -46.9962
-8.04318 16.9619 86.304
-5.56264 15.1392 86.6661
-151.71 48.0154 -51.1925
-201.136 52.5326 -5.59814
-198.355 53.6618 -6.88629
-236.16 9.11994 -28.8566
-149.58 -29.029 64.5138
-146.685 -30.2603 64.7614
-151.239 20.877 -67.1399
-147.614 25.7606 -66.4277
-150.374 23.8089 -66.398
-106.377 4.70443 79.6017
-107.642 7.08236 79.2165
-168.307 10.8973 -64.4757
-11.6984 60.5195 63.7545
-109.618 64.3761 -46.1367
-113.286 63.4223 -46.3722
-200.784 12.6549 -51.4603
-205.127 14.5879 -48.7821
[...]
POINT_DATA 17222
VECTORS F double
3.42781e-08 9.62037e-08 -1.62396e-09
8.50867e-08 8.30323e-08 7.66217e-09
-1.72441e-07 1.31763e-08 4.63077e-09
-1.72275e-07 1.31794e-08 3.88632e-09
-7.75233e-08 7.50913e-08 2.51015e-08
-7.83425e-08 7.22819e-08 2.58151e-08
-1.1813e-07 5.29975e-08 -2.5953e-08
7.5885e-08 8.4352e-08 7.74195e-09
1.41511e-07 6.89871e-08 4.52296e-09
1.42036e-07 6.84986e-08 5.09597e-09
2.62776e-07 1.4252e-08 1.66441e-08
2.67357e-07 1.24895e-08 1.43927e-08
1.16004e-07 7.36415e-08 2.08805e-08
5.75791e-09 4.35969e-08 8.57073e-09
1.1431e-07 7.4541e-08 1.93204e-08
-2.00638e-08 9.17111e-08 1.05058e-08
-2.43393e-08 8.80127e-08 1.2032e-08
3.86425e-08 9.92286e-08 -1.65989e-09
3.10136e-08 1.01639e-07 -1.98553e-09
-5.36438e-08 9.2893e-08 -2.76104e-08
-5.04985e-08 2.51758e-08 1.78464e-09
-6.16931e-08 9.15452e-08 -2.89268e-08
-2.27261e-08 8.46722e-08 1.26807e-08
-4.18216e-08 2.93822e-08 3.79051e-10
-1.42425e-08 8.21294e-08 1.1258e-08
-6.3005e-08 8.71521e-08 -3.05269e-08
-7.04183e-08 8.30827e-08 -3.09267e-08
1.191e-07 6.35273e-08 -9.89447e-09
1.19211e-07 6.49378e-08 -1.31766e-08
-6.31015e-09 5.58404e-08 6.74103e-09
-2.32384e-08 3.29012e-08 -3.30298e-09
2.99884e-08 9.23554e-08 2.81004e-09
2.16368e-08 9.08598e-08 3.83521e-09
1.17869e-07 8.21133e-08 5.25491e-09
5.61469e-08 7.92263e-08 -5.52084e-09
1.14785e-07 8.38347e-08 6.25124e-09
-7.25335e-08 -5.30126e-08 2.90518e-09
-7.14125e-08 -5.37675e-08 1.83403e-09
1.59116e-07 5.49974e-08 -1.37994e-09
1.56186e-07 5.4694e-08 -5.72578e-10
9.00983e-08 7.39459e-08 -1.06279e-08
9.39949e-08 6.98439e-08 -9.4562e-09
-1.56755e-08 8.26508e-08 1.12679e-08
-3.44764e-09 6.26885e-08 7.65235e-09
-1.6538e-08 8.0625e-08 1.30398e-08
1.30274e-07 7.54813e-08 4.98148e-09
1.32754e-07 7.40728e-08 3.71996e-09
-6.57876e-08 -6.0132e-08 1.81487e-09
1.19743e-07 8.17831e-08 5.87694e-09
1.22504e-07 7.94277e-08 5.36669e-09
1.26002e-07 7.89195e-08 4.58648e-09
-5.33837e-09 -7.63338e-08 -1.48312e-09
-1.15136e-08 -7.46495e-08 -1.35416e-09
-5.35995e-08 3.83503e-08 2.63854e-09
-6.17859e-08 -6.22393e-08 2.68104e-09
-6.2326e-08 8.23985e-08 -2.55378e-08
3.15551e-08 9.43294e-08 -1.97895e-09
-6.21731e-08 8.11536e-08 -2.70606e-08
8.48211e-08 8.06528e-08 1.19417e-08
-9.47529e-08 6.87975e-08 9.02946e-09
-9.60105e-08 6.54525e-08 9.30615e-09
-9.63764e-08 6.64092e-08 1.11266e-08
1.81394e-07 4.66439e-08 1.06617e-09
1.78274e-07 4.63841e-08 1.3848e-09
5.97949e-08 9.69442e-08 4.28513e-09
6.7981e-08 9.35038e-08 3.82125e-09
1.24677e-07 7.88775e-08 5.99011e-09
1.2718e-07 7.65655e-08 6.23444e-09
7.68946e-08 8.34e-08 9.68272e-09
7.93866e-08 8.16773e-08 1.04591e-08
1.75881e-07 4.80053e-08 -1.57531e-11
1.74169e-07 4.83776e-08 1.5238e-09
-1.83795e-08 8.2974e-08 1.22384e-08
-1.64614e-08 8.32335e-08 1.07425e-08
-1.26636e-07 5.44141e-08 -3.34964e-08
-1.30351e-07 5.29927e-08 -3.39851e-08
8.06822e-08 8.36438e-08 1.14659e-08
7.19637e-08 8.31042e-08 1.04323e-08
6.70483e-08 7.98559e-08 -8.15347e-09
6.6182e-08 7.89199e-08 -6.2362e-09
1.30831e-08 8.3052e-08 4.50664e-09
-3.47217e-08 2.68567e-08 -7.33265e-10
7.49326e-09 8.55119e-08 5.52534e-09
-1.3649e-07 4.86662e-08 -3.2163e-08
-1.35876e-07 4.81153e-08 -3.28526e-08
-6.35788e-08 7.17059e-08 1.99401e-08
1.42067e-07 6.51111e-08 7.75301e-09
-2.8051e-08 2.54953e-08 -1.47605e-10
-5.54981e-08 7.46781e-08 2.05877e-08
3.18654e-08 9.09321e-08 -2.81203e-09
2.56728e-08 9.43107e-08 -4.06839e-09
-5.54966e-08 8.33201e-08 -2.52222e-08
-5.47484e-08 8.60525e-08 -2.48734e-08
1.25251e-07 6.25658e-08 -4.16478e-09
1.17481e-07 6.33705e-08 -5.24301e-09
3.48431e-08 9.668e-08 3.57213e-09
2.66004e-08 9.52027e-08 1.49937e-09
-1.40636e-07 4.5265e-08 -3.03023e-08
1.05355e-07 8.98868e-08 4.66058e-09
-7.22624e-08 9.06138e-08 3.74339e-09
-7.18531e-08 9.09259e-08 2.13985e-09
-1.18057e-09 1.06207e-07 -7.31246e-09
-1.12313e-08 1.02595e-07 -8.83151e-09
1.75585e-07 5.03784e-08 1.28108e-08
1.76288e-07 5.06508e-08 1.40102e-08
1.62324e-07 4.94039e-08 -5.80148e-09
1.66935e-07 5.00997e-08 -7.12004e-09
1.20158e-07 7.315e-08 9.22546e-09
1.21455e-07 7.25238e-08 1.15437e-08
1.59484e-07 5.12955e-08 -7.01853e-09
9.17431e-08 8.51275e-08 8.37735e-09
-7.84978e-08 7.20334e-08 1.75318e-08
-8.13001e-08 7.11674e-08 1.81142e-08
1.88038e-07 4.57254e-08 1.23408e-08
1.87404e-07 4.61019e-08 1.1628e-08
9.69539e-08 8.16711e-08 8.62245e-09
1.01568e-07 7.83595e-08 7.69491e-09
1.673e-07 5.17599e-08 2.8445e-10
1.66343e-07 5.21704e-08 5.40742e-10
1.25818e-07 7.64957e-08 7.19987e-09
1.20859e-07 7.81966e-08 8.72887e-09
9.7669e-08 8.20582e-08 6.90987e-09
9.91886e-08 8.22302e-08 8.59313e-09
-7.53546e-08 -2.50802e-08 6.69978e-10
-8.5987e-08 6.38777e-08 2.26055e-08
-8.62922e-08 6.29847e-08 2.05146e-08
1.06121e-07 8.097e-08 -9.85953e-10
1.04185e-07 8.16121e-08 1.18281e-10
8.18574e-08 8.64483e-08 -2.82316e-09
8.94715e-08 8.42131e-08 -1.34595e-09
1.5157e-07 6.05771e-08 1.13285e-08
4.54161e-08 1.06835e-07 1.00102e-09
1.55847e-07 5.90728e-08 9.50959e-09
1.57104e-07 5.80041e-08 1.07775e-08
9.51101e-08 7.83024e-08 1.12053e-08
8.88688e-08 8.06373e-08 9.29e-09
9.04841e-08 8.2328e-08 1.1747e-08
1.14346e-07 7.70977e-08 1.02844e-08
8.89532e-08 8.58719e-08 7.09244e-09
1.12653e-07 7.77791e-08 7.75285e-09
1.06741e-07 8.02497e-08 8.92178e-09
3.37324e-08 1.09191e-07 -2.11277e-10
-7.93863e-08 6.9966e-08 2.58156e-08
-1.44333e-07 3.74312e-08 1.61528e-08
-2.997e-09 -5.82052e-08 -2.09824e-09
-2.18164e-08 8.27355e-08 1.24927e-08
-2.01791e-08 8.38204e-08 1.06126e-08
5.95495e-08 8.14609e-08 -2.05484e-09
5.55438e-08 8.39848e-08 -1.15185e-09
-1.44289e-07 3.57048e-08 1.52644e-08
8.78873e-08 8.23368e-08 1.51994e-08
8.03546e-08 8.72758e-08 1.50448e-08
7.87785e-08 8.41309e-08 1.46508e-08
-6.82215e-08 7.54627e-09 3.04101e-09
-6.78223e-08 1.04377e-08 3.17844e-09
9.97655e-08 7.60471e-08 1.13388e-08
1.01441e-07 7.73114e-08 1.36674e-08
-4.61788e-08 9.78609e-08 9.96625e-09
-5.49618e-08 9.43466e-08 8.8489e-09
3.69106e-08 9.45322e-08 8.0113e-10
3.49211e-08 9.29032e-08 2.94504e-09
-7.36789e-08 7.82614e-08 -2.67677e-08
-2.27579e-08 5.06024e-09 2.1156e-10
-7.29268e-08 7.79065e-08 -2.85647e-08
-5.10064e-08 8.00303e-08 1.96473e-08
-5.15202e-08 7.96568e-08 1.78678e-08
4.4171e-08 9.6911e-08 9.28034e-09
5.53989e-08 9.52269e-08 1.29075e-08
8.08188e-08 8.55399e-08 6.79164e-09
7.28865e-08 8.62661e-08 6.83698e-09
4.53739e-08 9.81937e-08 1.1768e-08
6.69086e-08 1.01465e-07 -1.30918e-09
9.98083e-08 9.01854e-08 7.18265e-09
1.04393e-07 8.68531e-08 6.12931e-09
1.04583e-07 8.21013e-08 8.62183e-09
5.80125e-08 1.00496e-07 -1.04142e-09
7.37689e-08 9.76271e-08 -1.09701e-09
-9.00777e-09 9.95213e-08 -1.02807e-08
-7.19786e-08 7.68056e-08 -2.84474e-08
-6.78354e-08 8.08384e-08 -2.85541e-08
1.27314e-07 6.05652e-08 -4.941e-09
1.28948e-07 6.1761e-08 -6.57989e-09
-2.09473e-08 1.00213e-07 -1.06972e-08
8.19488e-08 8.65076e-08 1.73594e-08
-1.75554e-08 1.00318e-07 -1.07527e-08
-1.393e-07 4.12308e-08 -2.12347e-08
4.18323e-08 1.1067e-07 1.08028e-09
-2.11701e-08 1.00032e-07 -1.25842e-08
-1.23753e-07 -8.07982e-09 -4.21457e-09
2.38558e-08 9.37247e-08 4.13851e-09
1.46765e-08 9.24292e-08 4.80971e-09
-1.56175e-07 -1.00453e-08 -5.67179e-09
-1.55562e-07 -1.06979e-08 -5.42997e-09
-1.62955e-07 2.60479e-08 -7.26491e-09
-1.62223e-07 2.68567e-08 -9.80793e-09
-1.23171e-07 -8.43821e-09 -4.66087e-09
1.86174e-07 4.73762e-08 2.5374e-08
1.862e-07 4.77196e-08 2.42252e-08
1.87333e-07 4.73677e-08 2.65312e-08
5.91233e-08 9.95669e-08 -8.13866e-10
8.00136e-08 8.87505e-08 7.74616e-09
2.74878e-08 8.733e-08 2.15666e-09
4.91004e-08 1.01064e-07 -1.37282e-09
-1.46678e-07 2.4014e-08 -2.13261e-08
8.26267e-08 -4.63337e-08 1.92942e-08
-1.42949e-07 2.67767e-08 -2.24303e-08
7.09294e-08 9.07724e-08 5.99828e-09
-5.0346e-08 2.79961e-08 -3.92589e-09
6.39111e-08 9.69512e-08 -1.78409e-09
-4.9987e-08 2.55302e-08 -3.84976e-09
-2.2963e-08 -2.47038e-09 -1.4484e-09
-2.15092e-08 6.22527e-10 -1.16684e-09
-1.28177e-07 -1.8616e-08 -3.98713e-09
-5.36856e-08 3.25494e-08 -4.94743e-09
-1.28597e-07 -1.81119e-08 -4.03195e-09
7.96669e-08 -4.73974e-08 2.42018e-08
7.42929e-08 -5.03504e-08 2.50613e-08
-1.0683e-07 -3.09657e-08 -5.76322e-09
-1.07949e-07 -2.9505e-08 -5.67561e-09
-1.39965e-07 4.0769e-08 -1.85802e-08
-1.3961e-07 3.92342e-08 -1.78246e-08
7.9063e-08 -4.86762e-08 -2.57389e-09
7.98827e-08 -4.86119e-08 -2.29273e-09
-1.41233e-07 4.02744e-08 -2.04123e-08
-4.07618e-08 9.1458e-08 -2.05427e-08
-4.07089e-08 8.84183e-08 -2.11955e-08
7.11315e-08 7.95399e-08 -3.10582e-09
1.34264e-07 -3.45336e-08 2.06931e-08
1.31957e-07 -3.64735e-08 2.32021e-08
2.86679e-07 2.84505e-09 -5.10173e-09
2.82393e-07 4.09194e-09 -7.39089e-09
-1.1145e-07 5.32222e-08 1.61116e-08
-1.11135e-07 5.17817e-08 1.72188e-08
7.46373e-08 7.75446e-08 -3.46408e-09
2.40997e-08 9.46747e-08 3.02328e-09
2.02493e-08 9.62965e-08 4.60868e-09
1.08042e-08 9.50503e-08 5.07006e-09
6.21316e-08 9.17636e-08 3.44566e-09
1.04481e-07 7.9211e-08 7.15283e-09
2.20484e-07 3.07939e-08 -1.45837e-08
-4.27718e-08 8.87183e-08 -2.17436e-08
-4.87287e-08 8.90836e-08 -2.36362e-08
2.14454e-07 3.22464e-08 -1.62236e-08
1.19188e-07 7.44641e-08 -1.48643e-10
1.18382e-07 7.48873e-08 -1.47822e-10
2.3286e-07 2.64963e-08 4.20564e-09
2.34047e-07 2.62084e-08 4.51428e-09
2.12282e-07 3.37584e-08 -1.65885e-08
5.9293e-08 -4.9687e-08 -1.15734e-08
-1.67324e-07 -1.5466e-09 -8.91878e-09
-1.67873e-07 -7.72236e-10 -9.07449e-09
-1.51707e-07 3.50499e-08 -2.47579e-08
1.48681e-07 6.12333e-08 2.223e-08
9.78565e-08 8.75743e-08 8.22044e-09
1.0323e-07 8.48432e-08 7.21315e-09
1.78473e-08 8.90638e-08 4.82502e-09
1.93773e-08 8.99377e-08 3.65372e-09
-1.77675e-08 9.22015e-08 -1.41136e-08
-5.32135e-08 3.55186e-08 2.69466e-09
1.93287e-07 4.2938e-08 1.08277e-08
1.91843e-07 4.41749e-08 1.12176e-08
-1.52219e-07 3.62364e-08 -2.44865e-08
-1.48107e-07 3.78591e-08 -2.63171e-08
-5.82246e-08 9.13527e-08 -1.68204e-08
-6.0458e-08 8.78071e-08 -1.76041e-08
-7.43403e-08 -5.48188e-08 1.94614e-09
-7.52784e-08 -5.46665e-08 2.78582e-09
-3.45695e-08 8.41474e-08 1.41286e-08
-7.09297e-08 -5.72431e-08 2.68896e-09
-1.02675e-07 6.25428e-08 -2.37421e-08
-7.09447e-08 8.00316e-08 -2.72563e-08
-7.14551e-08 7.95793e-08 -2.53036e-08
-1.03577e-07 6.0898e-08 -2.3467e-08
1.60737e-07 -2.28909e-08 -8.60461e-09
1.58731e-07 -2.54541e-08 -1.14111e-08
-1.03791e-07 6.18195e-08 -2.09867e-08
-1.18647e-07 5.30701e-08 -2.5183e-08
-1.64297e-07 -6.85551e-09 -6.67517e-09
-1.64722e-07 -6.22163e-09 -6.7266e-09
-1.14925e-07 5.40985e-08 -2.54995e-08
1.04116e-07 7.92925e-08 2.2207e-08
9.69861e-09 9.28828e-08 2.08509e-11
1.05765e-08 8.87398e-08 1.96126e-09
-1.57377e-07 2.84236e-08 -5.69339e-09
-1.59272e-07 2.88019e-08 -7.00734e-09
-2.47845e-08 9.40552e-08 -1.51209e-08
-1.15839e-07 5.61664e-08 -2.82641e-08
-1.63855e-07 -5.40052e-09 -1.37417e-09
-1.65379e-07 -4.81051e-09 -1.07385e-09
6.06442e-08 9.15013e-08 1.17683e-08
5.24964e-08 9.58377e-08 1.12232e-08
1.34598e-07 -3.29592e-08 -1.79456e-08
1.39876e-07 -3.37495e-08 -1.9767e-08
-1.72925e-07 1.02889e-08 -1.24943e-08
-1.73479e-07 1.13638e-08 -1.32975e-08
-1.04537e-08 1.03259e-07 -9.51835e-09
6.14592e-08 9.2468e-08 1.37956e-08
-9.7878e-08 5.951e-08 2.3682e-08
-9.81343e-08 6.2664e-08 2.62851e-08
1.25312e-07 7.66183e-08 2.44263e-09
1.20767e-07 7.72203e-08 1.34406e-09
5.15847e-09 9.92829e-08 -7.21807e-09
-1.32066e-07 9.58593e-09 -1.24708e-08
-1.32323e-07 1.08806e-08 -1.27421e-08
2.37758e-07 2.4843e-08 1.02646e-08
2.34937e-07 2.61509e-08 1.16079e-08
-5.6506e-08 7.50361e-08 1.9982e-08
-4.53331e-08 7.76944e-08 1.82733e-08
-4.84112e-08 7.76367e-08 2.01587e-08
-1.26934e-07 4.33433e-08 -2.66891e-08
-1.23789e-07 4.36954e-08 -2.52205e-08
7.6551e-08 -4.85934e-08 1.59712e-08
8.14787e-08 -4.76869e-08 1.46433e-08
-1.23253e-07 4.29612e-08 -2.53136e-08
1.06156e-07 7.53751e-08 1.6482e-08
1.06929e-07 7.81768e-08 2.00581e-08
1.47221e-07 6.32703e-08 4.34574e-09
1.16499e-07 8.3328e-08 3.83907e-09
1.12867e-07 8.53748e-08 5.10047e-09
1.09569e-07 8.78311e-08 3.33204e-09
6.09336e-08 1.06972e-07 4.11995e-09
-1.99662e-08 -1.54596e-09 1.00482e-09
-1.9296e-08 2.07161e-09 4.28214e-10
5.65956e-08 1.08451e-07 2.25838e-09
1.58982e-08 9.52658e-08 -6.91869e-09
-3.64471e-08 -6.44301e-08 -1.15788e-12
-5.76614e-08 5.70614e-08 6.28243e-09
-3.73198e-08 -6.48188e-08 -1.21788e-09
1.54174e-08 9.46618e-08 -5.82163e-09
-2.38878e-09 1.03169e-07 -8.40169e-09
3.20939e-07 -9.17106e-09 1.39129e-08
3.25057e-07 -9.49971e-09 1.6408e-08
3.30262e-07 -1.15156e-08 1.42633e-08
-3.99509e-08 9.06714e-08 -1.66775e-08
-1.64773e-07 1.61924e-08 -1.83449e-08
-1.63221e-07 1.67416e-08 -1.84125e-08
-3.10188e-08 9.22957e-08 -1.65045e-08
-3.9829e-08 8.9992e-08 -1.90809e-08
-5.34948e-08 7.57266e-08 2.07965e-08
7.13051e-09 1.08784e-07 -5.71435e-09
1.98862e-07 4.02122e-08 7.84571e-09
2.01745e-07 3.99063e-08 7.61274e-09
7.52075e-08 -4.45812e-08 -1.0758e-08
8.0401e-08 -4.41461e-08 -1.00872e-08
2.95301e-08 9.40455e-08 -4.13563e-09
-2.40071e-09 1.05693e-07 -7.13389e-09
-3.17716e-08 9.7181e-08 -1.37217e-08
-7.05051e-08 9.20514e-08 -6.24371e-09
-6.36414e-08 9.74621e-08 -3.84513e-09
-6.51783e-08 9.75277e-08 -5.65261e-09
8.32167e-08 -4.39993e-08 -1.82695e-08
8.86227e-08 -4.27267e-08 -1.75793e-08
-1.05111e-07 6.18225e-08 2.67366e-08
1.36375e-07 5.95464e-08 -2.21255e-08
1.3447e-07 5.88661e-08 -1.99867e-08
-1.52437e-07 -1.05234e-08 -2.28653e-09
-1.52215e-07 -9.77204e-09 -1.57412e-09
9.38962e-09 9.724e-08 -7.78632e-09
-4.71993e-09 9.60763e-08 -1.04783e-08
-1.7114e-07 1.85083e-08 -1.61058e-08
-1.71264e-07 1.71352e-08 -1.47614e-08
5.20948e-09 9.45876e-08 -9.84222e-09
-5.1927e-08 8.58809e-08 -2.06348e-08
-1.42504e-07 -1.72744e-08 -2.03411e-09
-4.92896e-08 8.75855e-08 -2.17912e-08
-1.65662e-07 -6.97361e-09 -6.59464e-09
-1.66253e-07 -6.39815e-09 -6.75069e-09
-5.14999e-08 8.61585e-08 -2.31522e-08
-3.32485e-09 4.95738e-08 -9.78093e-09
-7.36901e-09 4.36998e-08 -7.69157e-09
1.27167e-07 6.87871e-08 1.83786e-08
1.43525e-07 6.78327e-08 5.19731e-09
1.45378e-07 6.66194e-08 6.45462e-09
3.38483e-08 1.06699e-07 -1.9354e-10
-5.3592e-08 7.90631e-08 2.03628e-08
-5.31908e-08 7.822e-08 2.17989e-08
5.81718e-08 9.26563e-08 1.27682e-08
7.15372e-08 8.87899e-08 1.497e-08
6.87558e-08 9.0592e-08 1.34202e-08
1.82678e-08 8.93371e-08 -2.29094e-09
2.34836e-08 9.25498e-08 -4.36759e-09
3.93493e-08 9.094e-08 2.79431e-09
1.49688e-07 6.15345e-08 -5.50494e-08
1.69552e-07 5.51417e-08 2.76208e-08
1.68627e-07 5.42427e-08 2.37515e-08
4.50114e-08 8.95166e-08 5.1202e-10
4.93456e-08 8.91376e-08 1.25211e-09
8.42884e-08 8.29264e-08 7.9117e-09
3.12876e-07 -6.87082e-09 1.19228e-08
3.1076e-07 -4.85574e-09 1.73477e-08
-1.05584e-07 6.07423e-08 2.58568e-08
5.06094e-08 9.19159e-08 3.33698e-09
-3.0861e-08 4.82555e-08 -1.91915e-09
4.3633e-08 8.98756e-08 -1.01133e-08
3.44085e-08 9.32686e-08 -9.05718e-09
6.26756e-08 9.47342e-08 1.19055e-08
6.11895e-08 9.22553e-08 1.2555e-08
6.08045e-08 9.99635e-08 4.38918e-09
-8.36254e-08 7.40798e-08 -2.92424e-08
-4.75828e-08 8.86409e-08 -2.49662e-08
-7.56987e-08 6.82183e-08 -1.81745e-08
-7.57318e-08 6.58708e-08 -1.8433e-08
2.45248e-07 3.20801e-08 -6.35957e-08
2.32516e-07 3.79471e-08 -6.87611e-08
-1.07395e-07 -3.91612e-08 -7.78717e-09
-1.02905e-07 -4.0204e-08 -8.25011e-09
9.66374e-09 -6.81154e-08 8.21407e-09
9.64298e-09 -6.85526e-08 9.30961e-09
-1.12716e-07 5.20238e-08 1.55817e-08
-1.12958e-07 5.21526e-08 1.26054e-08
1.98059e-07 4.16997e-08 6.95953e-09
1.95686e-07 4.1895e-08 7.14064e-09
-4.75483e-08 9.00138e-08 -2.37123e-08
-1.34604e-07 4.22333e-08 2.29075e-08
1.15377e-08 1.11696e-07 2.8365e-09
2.16354e-08 1.13208e-07 1.96987e-09
-1.30428e-07 -2.16731e-08 -5.48609e-09
-1.31515e-07 -2.0725e-08 -5.34935e-09
-8.16316e-08 7.5217e-08 -2.73041e-08
1.50302e-07 6.14281e-08 -5.57804e-08
1.49344e-08 1.02609e-07 -4.38766e-09
2.74236e-08 1.02394e-07 -3.92565e-09
2.31317e-07 2.75007e-08 2.03096e-08
2.29822e-07 2.84844e-08 1.93906e-08
7.14095e-08 8.94197e-08 6.59075e-09
7.82739e-08 8.65253e-08 5.81945e-09
-4.38776e-08 -6.97006e-08 -8.96609e-10
-4.63665e-08 -6.82829e-08 -2.17257e-09
2.37077e-07 2.39324e-08 -2.31717e-08
2.40521e-07 2.16808e-08 -2.06298e-08
-3.7516e-08 8.10656e-08 1.72752e-08
-4.09835e-08 7.74525e-08 1.80218e-08
-8.34378e-08 7.11e-08 -2.72881e-08
-8.56496e-08 -4.33746e-08 1.99369e-09
1.58454e-07 5.76352e-08 3.51277e-09
1.21621e-07 7.77969e-08 2.84844e-08
-1.59877e-07 2.44751e-08 1.37922e-08
-1.61295e-07 2.38717e-08 1.37209e-08
-7.85302e-08 -6.54441e-09 1.66486e-09
-7.71304e-08 6.79191e-08 -1.99741e-08
-8.38913e-08 6.65817e-08 -2.11099e-08
-2.51978e-09 8.92569e-08 7.85936e-09
-2.13185e-09 8.48862e-08 9.26384e-09
1.21909e-07 7.93918e-08 3.13861e-08
2.54141e-08 -7.8539e-08 8.8188e-09
3.18702e-08 -7.84065e-08 8.72816e-09
1.74257e-08 1.03201e-07 4.27676e-09
-8.50807e-08 -4.3128e-08 1.85495e-09
-8.66776e-08 -4.2227e-08 2.17994e-09
1.71718e-07 5.16107e-08 3.44548e-09
1.72954e-07 5.07331e-08 2.37535e-09
5.9841e-08 7.82128e-08 -7.04763e-09
6.08191e-08 7.90191e-08 -8.91791e-09
2.60297e-08 8.46652e-08 1.95803e-09
3.11207e-08 8.24883e-08 1.36459e-09
1.0237e-08 9.17341e-08 5.67517e-09
-3.62651e-09 3.1355e-08 4.75434e-09
4.89656e-09 8.8807e-08 7.6342e-09
1.25258e-07 7.03855e-08 1.53561e-08
1.2367e-07 6.94125e-08 1.23006e-08
1.34887e-07 6.53773e-08 1.21993e-08
1.28806e-07 6.75244e-08 1.40337e-08
1.62363e-07 6.53532e-08 4.59345e-08
1.59013e-07 6.81605e-08 4.58349e-08
-1.17954e-07 -3.48385e-08 -7.02985e-10
-4.6e-08 -1.67929e-08 -1.81877e-09
-1.17023e-07 -3.52907e-08 -1.6614e-09
2.32053e-07 2.75081e-08 1.77397e-08
2.36668e-07 2.5508e-08 1.3656e-08
1.37764e-07 5.82856e-08 -1.55958e-08
1.46497e-07 5.50608e-08 -1.34479e-08
-1.03451e-07 -4.53197e-08 -5.60823e-09
-9.8129e-08 -4.74502e-08 -6.18071e-09
-1.02209e-07 -4.67933e-08 -5.76685e-09
3.74378e-08 -5.83526e-08 1.56036e-08
3.7678e-08 -5.76962e-08 1.42528e-08
3.97097e-08 -5.79306e-08 1.55138e-08
-2.30702e-08 8.80211e-08 1.19969e-08
-1.47782e-08 -7.56463e-08 3.41304e-09
-7.68416e-09 -7.84653e-08 4.97294e-09
-9.10311e-09 -7.8327e-08 4.2641e-09
-9.80541e-08 -3.27218e-08 -5.17941e-09
-1.01487e-07 -3.3975e-08 -6.50596e-09
-1.0099e-07 -3.39106e-08 -5.71616e-09
-1.17418e-07 5.60763e-08 -2.95462e-08
1.60327e-07 5.55233e-08 9.05121e-10
-1.16977e-07 5.44781e-08 -3.02447e-08
-1.39088e-07 3.91619e-08 2.17452e-08
-1.04246e-08 9.21803e-08 -1.17087e-08
1.51953e-07 5.54557e-08 -5.44939e-08
1.35002e-07 5.86583e-08 -5.39718e-08
7.288e-08 -4.63949e-08 -1.31954e-08
7.04403e-08 -4.61444e-08 -1.243e-08
2.92309e-07 9.19324e-09 4.07099e-08
2.85841e-07 1.19865e-08 4.30372e-08
-4.69036e-09 9.6205e-08 -9.64886e-09
-4.54428e-09 9.11089e-08 -1.05552e-08
9.91462e-08 6.91164e-08 -8.57542e-09
1.31437e-07 6.02985e-08 -7.14989e-09
9.97073e-08 6.96731e-08 -1.04761e-08
9.83949e-08 6.86796e-08 -7.67641e-09
3.31971e-08 -6.29671e-08 -6.32156e-09
2.83812e-08 -6.19726e-08 -5.84341e-09
1.77373e-07 4.97677e-08 8.18228e-09
1.79279e-07 4.98351e-08 9.85374e-09
1.80886e-07 4.81701e-08 8.31459e-09
1.13955e-08 9.48048e-08 -4.7842e-09
-3.0196e-09 9.58212e-08 -8.45229e-09
-5.07456e-09 1.15919e-08 1.64518e-09
1.22468e-07 6.26798e-08 -7.15023e-09
-3.97187e-08 -2.38267e-08 -1.39262e-09
1.52021e-09 9.44786e-08 -6.02862e-09
2.81572e-08 -5.33196e-08 -9.51639e-09
3.18491e-08 -5.20096e-08 -1.04212e-08
3.21643e-08 -5.08319e-08 -9.43973e-09
2.14164e-07 3.2561e-08 1.91033e-09
2.16741e-07 3.18061e-08 4.21571e-09
2.18019e-07 3.09587e-08 3.02917e-09
5.74835e-08 -5.64234e-08 1.69425e-08
5.21072e-08 -5.68722e-08 1.71256e-08
5.06466e-08 -5.73307e-08 1.62763e-08
1.51603e-07 5.98891e-08 1.12069e-08
1.53059e-07 5.89721e-08 1.23722e-08
-1.24797e-07 1.21718e-08 -1.23267e-08
-1.28708e-07 1.27157e-08 -1.33656e-08
1.57681e-07 5.70396e-08 1.02768e-08
1.81675e-07 -2.83382e-08 2.19174e-08
-1.60173e-07 6.69604e-09 -1.35324e-08
-1.60922e-07 5.3225e-09 -1.2607e-08
1.68222e-07 -2.61441e-08 1.80938e-08
1.70178e-07 -2.70272e-08 1.95747e-08
1.3122e-07 7.00948e-08 2.68792e-08
1.36118e-07 6.62119e-08 2.56545e-08
1.85807e-08 6.20539e-08 1.4562e-08
1.43189e-07 6.57525e-08 2.68164e-08
-7.15465e-08 -5.155e-08 -5.33861e-09
1.8425e-08 6.44112e-08 1.532e-08
-6.85059e-08 -5.40805e-08 -5.59005e-09
-6.25663e-08 -5.35456e-08 -4.92155e-09
2.49008e-07 2.02789e-08 9.65315e-09
-9.8316e-08 6.46251e-08 2.67466e-08
-9.87232e-08 6.58749e-08 2.64631e-08
2.47291e-07 2.11069e-08 8.746e-09