# vtk DataFile Version 2.0
S, Created by Mohamad Ibrahim Cheikh
ASCII
DATASET UNSTRUCTURED_GRID
POINTS 17222 double
-216.008 9.90541 -43.9698
-199.438 30.2882 -44.2368
-49.1186 -83.1457 23.1388
-50.6545 -83.5933 21.0242
-118.026 -36.6235 68.5363
-115.233 -38.4344 68.1256
-169.436 -58.7084 -27.9739
-200.354 27.4231 -45.5784
-202.339 52.2403 -1.59129
-201.868 52.4694 1.36229
-23.4682 85.1465 -20.6554
-20.6069 85.5659 -19.2482
-140.076 44.6949 -57.8283
4.3128 17.5485 -86.2193
-142.716 43.153 -58.2081
-219.297 -9.50376 42.0221
-217.558 -12.0267 42.4797
-226.03 11.4282 -36.8573
-227.261 9.06517 -36.5868
-132.872 -28.567 -69.0392
2.18469 -5.19491 87.8432
-133.035 -31.0747 -67.9085
-160.895 -14.0779 66.1547
0.489343 -0.564905 87.998
-159.341 -11.5071 67.1054
-145.074 -33.75 -63.4683
-144.119 -36.751 -62.0521
-156.334 45.171 52.0706
-153.881 46.3285 51.948
-7.94782 11.2289 -87.2363
0.611738 9.30786 87.5061
-219.42 8.62573 42.1325
-219.154 5.74455 42.7885
-221.317 40.7781 -9.18392
-158.79 19.4149 65.4222
-222.974 39.4308 -10.115
205.812 -37.1841 -34.2834
208.733 -35.914 -33.466
-168.224 61.5564 22.1382
-168.019 60.3958 25.2996
-158.974 33.3919 59.4546
-156.553 34.9348 59.3544
-185.044 -11.2008 58.535
-15.9105 11.414 -87.0789
-182.691 -13.0794 59.0481
-213.64 46.4327 0.164308
-211.445 47.6259 1.42462
221.642 -31.3869 -27.2845
-221.324 41.3922 -5.79115
-218.944 42.9883 -5.20494
-217.619 44.0147 -2.94197
238.128 -2.46404 -28.2052
237.185 -4.90858 -28.8509
-11.2791 -7.3272 87.6056
223.23 -29.2273 -28.0865
-184.965 -31.5907 -50.5712
-212.294 8.92245 -46.3313
-181.527 -32.9054 -51.2535
-177.462 31.9504 -53.549
-221.48 -38.4012 16.2388
-218.576 -40.4794 16.0084
-216.793 -40.5606 18.5665
-144.583 70.16 16.1944
-145.123 69.3857 18.7395
-224.76 19.7589 -34.1868
-223.113 22.4923 -33.8169
-216.648 43.8731 -8.52652
-213.945 45.4886 -8.41866
-185.087 28.1584 -52.5068
-182.9 29.6629 -52.617
-148.445 68.2059 19.8521
-151.45 67.7623 18.5489
-192.975 -12.2739 55.0829
-190.396 -10.8168 56.4697
-131.066 -62.0101 -42.3746
-131.677 -63.6299 -39.654
-179.968 29.8118 -53.758
-180.033 27.1622 -55.118
-162.842 24.2394 62.5291
-165.587 23.0069 62.1108
-187.116 1.48193 58.7811
4.0688 3.47438 87.9199
-188.761 -0.639882 58.1491
-122.552 -66.2835 -38.881
-119.559 -66.6866 -39.3296
-175.18 -32.9275 53.8759
-190.051 54.3588 -19.1578
13.1143 1.69952 -87.8638
-175.843 -30.138 55.2274
-200.707 8.15024 -52.3991
-202.776 5.72222 -51.7414
-174.176 -29.9415 -55.9759
-171.468 -28.7696 -57.5908
-175.997 47.0964 41.637
-176.911 44.9066 43.5388
-160.07 10.7783 -67.0141
-159.84 7.74328 -67.4988
-118.059 -68.2505 -37.1409
-230.396 34.7109 -6.34357
-241.748 -22.7236 8.51869
-242.712 -22.3803 5.55467
-236.892 -1.01666 -29.5371
-236.025 -4.45114 -30.0645
-140.888 68.253 -25.5999
-142.35 68.724 -23.2412
-141.801 62.8065 36.5728
-142.337 64.3466 33.5127
-196.204 44.7409 -32.0808
-193.467 46.0493 -32.2635
-144.204 61.4829 37.6554
-212.549 32.6114 -33.9032
-209.555 -35.0725 33.7283
-211.334 -36.3299 30.9216
-131.024 72.7909 -18.539
-130.502 72.134 -21.3444
-204.375 34.8853 -37.5926
-202.176 36.922 -37.1001
-160.524 64.9147 19.3729
-162.619 64.785 17.5851
-210.352 45.2252 -16.7747
-211.977 43.4861 -18.7527
-210.717 34.718 -33.2045
-207.787 35.5264 -34.5815
83.0281 -33.2308 -76.1296
-170.012 -43.8378 47.7862
-173.218 -43.2618 46.8931
-218.862 36.6368 23.1787
-221.527 35.8266 21.2664
-222.529 27.9887 29.9665
-221.273 30.4504 28.6766
-174.441 59.0996 -22.9284
-238.24 13.9977 -24.4768
-172.558 60.5029 -20.9257
-169.379 61.512 -21.1617
-190.196 35.9065 -45.0097
-196.559 32.7721 -44.0433
-193.101 33.646 -45.241
-202.824 42.1455 -30.517
-217.153 31.3614 -31.4197
-205.914 40.731 -29.8973
-207.592 38.5299 -31.3589
-241.295 10.4689 -22.4962
-143.173 -40.779 59.7614
-125.385 -70.4248 29.3187
195.958 0.00918295 -55.1608
-202.819 -13.0707 50.3677
-200.725 -11.3842 51.7844
-203.904 20.5426 47.2412
-206.212 18.4613 46.8722
-122.435 -71.3601 28.5741
-159.866 33.0625 -59.3456
-157.943 29.6869 -61.7132
-160.868 30.1876 -60.5341
15.4547 -16.5818 86.2543
12.3953 -15.6405 86.4902
-184.239 37.7096 -46.5423
-180.857 38.6384 -47.3969
-241.249 -14.6987 20.0593
-240.365 -17.6678 18.9311
-227.232 11.7748 35.8294
-225.314 10.3686 37.6978
-186.69 -36.2232 -46.5274
23.0353 9.26584 87.1389
-184.081 -37.1374 -47.0763
-197.023 -26.0528 48.091
-199.758 -25.2735 47.1155
-114 15.0146 -76.99
-114.993 19.74 -75.7323
-205.208 28.2915 -42.2849
-205.825 25.9168 -43.4246
-116.124 17.0013 -76.184
-237.626 20.7865 19.9685
-227.421 33.4799 -17.058
-225.262 35.5852 -16.2857
-212.528 37.3911 -28.5644
-237.698 18.3458 22.1369
-235.605 23.3364 20.0831
-228.268 -5.04515 -36.5947
-167.868 -37.8609 -53.4838
-169.539 -35.429 -54.495
-172.788 49.0115 41.0685
-169.75 49.1281 42.4569
-232.926 -8.11561 -32.1825
-154.764 31.5933 -61.753
-229.019 -7.44274 -35.5975
-146.698 -68.9698 -18.7729
-241.675 12.7986 -20.7219
-230.725 -8.95429 -33.8577
47.7972 -60.591 -61.5876
-223.919 6.42769 39.548
-223.817 3.44652 39.9883
48.6659 -82.8153 -24.4063
51.3553 -82.4302 -25.0273
-106.219 -79.7579 -1.16565
-108.539 -79.3391 -2.64377
51.1592 -60.4715 -61.374
-100.267 70.8459 -38.6522
-98.4984 69.7859 -41.0624
-95.1735 70.6882 -40.4747
-235.445 18.6265 24.7019
-216.392 28.1638 -34.8991
-205.242 7.78985 50.2598
-236.325 15.7163 25.6767
-29.7664 -68.4767 -54.2813
183.497 51.8531 30.5429
-31.3807 -66.2937 -56.8207
-216.231 24.4087 -37.7342
6.74073 -10.1985 -87.3752
-233.422 20.5948 25.4776
9.9097 -10.2461 -87.3327
41.8679 2.87289 -86.7245
39.2545 4.61864 -86.7987
55.3771 -61.1935 60.1989
1.65144 -12.2833 -87.1366
52.3316 -60.7294 60.9971
89.5099 50.5503 64.8672
90.7016 48.3913 66.2953
89.2914 -50.7465 64.7508
86.1958 -51.9793 64.2847
-151.504 -68.7931 -14.1877
-148.671 -69.6425 -13.7053
214.923 42.7667 -16.1149
215.829 43.215 -13.1679
-146.72 -69.674 -15.9373
-193.954 -21.01 -51.9322
-196.179 -21.9582 -50.4969
-199.84 24.8359 47.3052
122.819 72.3868 25.6387
125.098 71.3162 27.2402
-1.66069 87.2195 11.6803
-3.62256 86.8714 13.9914
-181.472 -53.987 28.2402
-177.912 -55.1955 28.6739
-198.049 26.5486 47.2974
-226.225 7.05091 37.7962
-228.225 5.35029 36.5836
-228.179 2.41282 36.9292
-213.003 20.4538 -42.0823
-206.005 37.5301 -33.7605
-67.2315 77.8327 33.6554
-192.181 -22.8608 -51.9578
-193.25 -25.0786 -50.4263
-68.629 76.6831 35.8756
-210.241 42.4804 22.9741
-212.158 42.3367 20.9976
-75.2463 83.8726 4.02306
-74.4057 83.7772 6.89815
-71.7036 75.9054 36.7819
181.678 37.0107 -48.3029
12.8917 -85.6277 -19.7878
9.5825 -85.7743 -19.3783
-110.547 -74.8452 -25.417
-132.079 57.9253 -47.4645
-220.433 33.8269 -25.5096
-218.741 35.9239 -24.4021
-215.678 3.98634 45.0891
-213.103 4.88131 46.4785
-203.374 -11.3394 -50.5133
-8.01499 -7.51965 87.6333
-126.194 74.9007 -13.5711
-129.08 74.1557 -14.3198
-114.112 -74.1908 -25.4069
-115.063 -73.0295 -28.1027
-230.354 -21.8431 -27.7555
-228.303 -23.7086 -28.2935
212.137 -37.1134 -29.2743
209.53 -37.7474 -30.7261
-211.053 -17.0088 44.7349
214.407 -34.8033 -30.0755
-195.123 -48.3951 -27.2142
-191.187 -34.94 -45.2557
-194.291 -34.206 -44.185
-196.446 -49.195 -24.477
71.3417 74.2885 -40.0261
74.1368 73.217 -41.3566
-199.641 -47.9678 -23.737
-175.041 -58.2789 -24.4213
32.3851 -85.7934 -15.9716
30.017 -85.655 -17.2309
-174.686 -57.1095 -27.3224
-135.028 40.4324 -62.2656
-107.951 2.56326 79.4399
-110.79 1.01919 78.995
-117.837 -77.7088 2.30834
-117.218 -77.852 -0.937031
-212.398 -12.9173 -45.3206
-171.797 -57.035 -29.6236
17.8817 -82.1215 30.9986
16.0863 -83.0136 28.6541
-136.767 21.4258 -70.6742
-138.595 18.8785 -70.9641
93.0891 69.0065 -43.8311
94.5846 70.5032 -40.9635
-34.2218 -85.6037 -16.5112
-37.1358 -85.2793 -17.3954
-233.454 -4.57216 -32.4123
-133.994 22.7417 -70.9131
-140.326 -48.7594 54.3663
-137.173 -48.4452 55.6179
-215.359 44.0492 11.1984
-216.745 42.5298 13.5516
-223.961 -0.233446 -40.0376
9.45756 -61.979 -62.3831
6.68378 -61.1779 -63.2123
-63.8021 84.1052 -13.1126
-67.0034 83.643 -14.0782
-164.357 -29.9094 59.5164
-163.153 -25.163 62.0635
-164.859 -27.2224 60.6256
-49.8095 -56.569 -65.1168
-48.35 -54.2275 -67.2099
200.496 46.3346 25.9921
199.85 48.075 23.3005
-45.0936 -54.2549 -67.4645
-153.173 40.1234 -57.111
-150.203 41.1405 -57.3526
-193.132 55.8074 7.92954
-223.932 39.8272 -4.29749
-225.977 38.2161 -5.61552
-228.553 36.4047 -4.83371
-240.103 18.8414 -18.1918
28.9634 10.2336 86.8134
25.4644 11.3944 86.8031
-242.028 17.2146 -16.612
-213.214 2.17529 -46.6214
206.844 -15.1797 47.7018
-33.2904 -12.7654 86.2865
203.961 -16.1566 48.8858
-215.722 2.7202 -45.1575
-229.483 -2.27293 -35.9354
28.0528 86.8802 -9.97377
30.0438 86.5004 -12.2954
33.0079 86.505 -11.2917
-215.767 -18.0598 -41.449
-36.1215 -80.2396 -33.8506
-35.2542 -79.154 -36.4209
-215.764 -15.2769 -42.5553
-213.356 -19.3412 -42.3885
-152.712 -29.5127 63.3861
-240.095 1.9239 -26.1292
-121.705 76.815 -5.47618
-120.539 77.194 -2.4912
188.755 46.5825 -34.8144
188.591 48.5635 -32.1113
-214.512 7.44897 -45.3302
-239.391 -1.15117 -26.9527
-230.287 -12.6213 -33.045
-242.85 -21.9627 -6.41782
-245.746 -18.472 -3.01487
-244.87 -19.0955 -6.18449
133.204 52.1236 -53.4305
132.75 54.0314 -51.6437
-91.2125 -46.86 67.3019
-107.208 53.3648 59.068
-105.903 51.6126 60.8854
35.9131 -76.3678 41.8815
33.8621 -75.4375 43.7356
-217.731 0.276086 -44.0444
-217.436 -4.88073 -43.9528
-60.7304 -83.0744 -19.7761
-57.7909 -83.6194 -18.5176
-216.491 -1.99578 -44.7424
-202.62 -24.8237 -45.8411
77.7916 -76.6758 -33.5252
-196.427 -24.5527 -49.1668
31.5064 -86.457 -12.1517
28.8527 -86.6713 -11.4093
-198.611 -26.0342 -47.2947
-8.04835 17.6202 86.1719
-5.62293 15.7205 86.5621
-150.071 48.8751 -50.97
-199.31 53.3836 -5.53992
-196.506 54.4975 -6.81274
-235.703 10.4569 -28.8601
-150.206 -28.0124 64.7845
-147.305 -29.2539 65.0508
-150.456 22.042 -66.9828
-146.663 26.8756 -66.2438
-149.459 24.9465 -66.2332
-106.085 5.857 79.573
-107.284 8.27451 79.1604
-167.765 12.0396 -64.4456
-9.70503 61.2884 63.0571
-107.431 65.0627 -45.8019
-111.113 64.0987 -46.085
-200.183 13.7761 -51.4589
-204.473 15.7036 -48.7716
[...]
POINT_DATA 17222
VECTORS F double
3.23329e-08 7.74609e-08 -1.99675e-09
7.30689e-08 6.67691e-08 5.38397e-09
-1.4161e-07 1.11642e-08 3.31339e-09
-1.4132e-07 1.11248e-08 2.54684e-09
-5.80098e-08 6.43701e-08 2.21666e-08
-5.86658e-08 6.20118e-08 2.28362e-08
-9.11171e-08 4.31693e-08 -2.30308e-08
6.57679e-08 6.79278e-08 5.47489e-09
1.17523e-07 5.58124e-08 2.71913e-09
1.17924e-07 5.54618e-08 3.23583e-09
2.24063e-07 1.07069e-08 1.29685e-08
2.2799e-07 9.28697e-09 1.14011e-08
1.00815e-07 5.91843e-08 1.5845e-08
1.08166e-08 4.82541e-08 9.88751e-09
9.92548e-08 5.98969e-08 1.4611e-08
-1.2052e-08 7.53788e-08 9.34764e-09
-1.5605e-08 7.23913e-08 1.07105e-08
3.55508e-08 8.00102e-08 -1.88381e-09
2.95123e-08 8.19997e-08 -2.12653e-09
-3.55201e-08 7.9326e-08 -2.44539e-08
-3.92512e-08 2.2809e-08 1.46841e-09
-4.23526e-08 7.83249e-08 -2.56831e-08
-1.25625e-08 7.07155e-08 1.13079e-08
-3.17302e-08 2.64666e-08 1.91552e-10
-5.68112e-09 6.86145e-08 1.01144e-08
-4.37064e-08 7.36075e-08 -2.69105e-08
-4.98384e-08 7.02605e-08 -2.7441e-08
1.00978e-07 5.23415e-08 -8.28874e-09
1.01186e-07 5.34221e-08 -1.09466e-08
1.73126e-09 5.81438e-08 7.46485e-09
-1.5871e-08 2.9464e-08 -3.12043e-09
2.83308e-08 7.56275e-08 2.5807e-09
2.15224e-08 7.46123e-08 3.47892e-09
9.82386e-08 6.60589e-08 3.47117e-09
5.08604e-08 6.56492e-08 -4.36869e-09
9.5762e-08 6.73965e-08 4.28183e-09
-6.19567e-08 -4.3459e-08 1.59898e-09
-6.10199e-08 -4.40972e-08 7.26974e-10
1.32535e-07 4.51048e-08 -2.11485e-09
1.30204e-07 4.49341e-08 -1.4008e-09
7.7955e-08 6.08459e-08 -8.65371e-09
8.10697e-08 5.7617e-08 -7.73299e-09
-7.6583e-09 6.84213e-08 1.01286e-08
5.20061e-09 6.31859e-08 8.16584e-09
-8.31001e-09 6.67456e-08 1.16367e-08
1.08212e-07 6.09456e-08 3.25542e-09
1.10247e-07 5.98586e-08 2.22743e-09
-5.643e-08 -4.93594e-08 6.58454e-10
9.97039e-08 6.58294e-08 4.0004e-09
1.0194e-07 6.39961e-08 3.56095e-09
1.04786e-07 6.36256e-08 2.93347e-09
-7.15282e-09 -6.34433e-08 -1.85115e-09
-1.21971e-08 -6.19221e-08 -1.74142e-09
-4.14802e-08 3.45111e-08 2.23261e-09
-5.32165e-08 -5.11092e-08 1.40154e-09
-4.46602e-08 6.75831e-08 -2.22193e-08
3.02532e-08 7.60738e-08 -2.32147e-09
-4.44242e-08 6.6649e-08 -2.35266e-08
7.3984e-08 6.48942e-08 8.70164e-09
-7.35172e-08 5.54793e-08 8.43566e-09
-7.45165e-08 5.26642e-08 8.60399e-09
-7.46895e-08 5.35566e-08 1.02266e-08
1.51334e-07 3.82502e-08 -2.97371e-10
1.48754e-07 3.80826e-08 3.15855e-11
5.24725e-08 7.80852e-08 2.89466e-09
5.89045e-08 7.52649e-08 2.47971e-09
1.03741e-07 6.35029e-08 4.03589e-09
1.05799e-07 6.16964e-08 4.18763e-09
6.72559e-08 6.70799e-08 6.94806e-09
6.93809e-08 6.57014e-08 7.51242e-09
1.46693e-07 3.93991e-08 -1.06934e-09
1.45237e-07 3.97105e-08 1.148e-10
-1.01177e-08 6.85473e-08 1.09345e-08
-8.46448e-09 6.88823e-08 9.70038e-09
-9.84713e-08 4.6448e-08 -3.06819e-08
-1.01713e-07 4.51591e-08 -3.11125e-08
7.05531e-08 6.72789e-08 8.39255e-09
6.35499e-08 6.7005e-08 7.60663e-09
5.941e-08 6.59001e-08 -6.60384e-09
5.85909e-08 6.51091e-08 -4.99351e-09
1.54722e-08 6.86045e-08 4.30038e-09
-2.58132e-08 2.42428e-08 -8.11747e-10
1.09784e-08 7.05424e-08 5.1394e-09
-1.07323e-07 4.17914e-08 -2.98294e-08
-1.06751e-07 4.14139e-08 -3.04901e-08
-4.63844e-08 5.95103e-08 1.7906e-08
1.18342e-07 5.2431e-08 5.03681e-09
-2.0834e-08 3.11711e-08 2.22226e-10
-3.96496e-08 6.18826e-08 1.83138e-08
3.10194e-08 7.34292e-08 -3.12538e-09
2.60894e-08 7.61288e-08 -4.09861e-09
-3.86178e-08 6.86449e-08 -2.20065e-08
-3.78329e-08 7.10082e-08 -2.16815e-08
1.05172e-07 5.13998e-08 -3.71197e-09
9.89437e-08 5.21762e-08 -4.59364e-09
3.53561e-08 7.86662e-08 2.31298e-09
2.87138e-08 7.7626e-08 5.80267e-10
-1.11059e-07 3.89176e-08 -2.8295e-08
8.81806e-08 7.22301e-08 3.12274e-09
-5.5716e-08 7.39468e-08 3.67329e-09
-5.54723e-08 7.41906e-08 2.16641e-09
3.42944e-09 8.5946e-08 -6.3259e-09
-4.92115e-09 8.32164e-08 -7.59058e-09
1.47153e-07 4.05412e-08 8.93836e-09
1.47633e-07 4.0792e-08 9.91586e-09
1.35906e-07 4.07221e-08 -5.41876e-09
1.39652e-07 4.12161e-08 -6.51975e-09
1.00893e-07 5.87553e-08 6.39544e-09
1.02014e-07 5.82444e-08 8.23815e-09
1.33542e-07 4.2234e-08 -6.34637e-09
7.79991e-08 6.84372e-08 5.96101e-09
-5.96233e-08 5.88149e-08 1.58058e-08
-6.20025e-08 5.79468e-08 1.62014e-08
1.57477e-07 3.6896e-08 8.60639e-09
1.57047e-07 3.71569e-08 8.0144e-09
8.22993e-08 6.55765e-08 6.07526e-09
8.59858e-08 6.29587e-08 5.28841e-09
1.39376e-07 4.24636e-08 -8.95927e-10
1.38552e-07 4.27718e-08 -7.09129e-10
1.04861e-07 6.15232e-08 4.88027e-09
1.00915e-07 6.28747e-08 6.14192e-09
8.2709e-08 6.59833e-08 4.73007e-09
8.40156e-08 6.60674e-08 6.06744e-09
-6.43228e-08 -1.77757e-08 -8.29537e-10
-6.49178e-08 5.28277e-08 2.0186e-08
-6.52501e-08 5.19891e-08 1.84543e-08
8.88409e-08 6.56801e-08 -1.11239e-09
8.72294e-08 6.61843e-08 -2.51658e-10
6.95768e-08 7.03929e-08 -2.49051e-09
7.5589e-08 6.84627e-08 -1.28894e-09
1.26499e-07 4.8763e-08 7.86083e-09
4.09127e-08 8.60143e-08 4.35614e-10
1.29983e-07 4.75791e-08 6.33739e-09
1.31078e-07 4.67286e-08 7.38044e-09
8.13496e-08 6.30436e-08 8.20688e-09
7.62029e-08 6.49225e-08 6.67151e-09
7.76391e-08 6.62096e-08 8.66866e-09
9.6142e-08 6.19462e-08 7.31969e-09
7.55852e-08 6.90579e-08 4.97246e-09
9.47081e-08 6.25169e-08 5.31045e-09
9.00322e-08 6.44972e-08 6.27726e-09
3.15608e-08 8.8124e-08 -4.36067e-10
-5.91706e-08 5.90181e-08 2.29163e-08
-1.1477e-07 3.0994e-08 1.4357e-08
-4.65851e-09 -4.85166e-08 -2.03423e-09
-1.3199e-08 6.81053e-08 1.11667e-08
-1.17913e-08 6.91029e-08 9.59576e-09
5.21559e-08 6.68976e-08 -1.52882e-09
4.89076e-08 6.88403e-08 -7.70782e-10
-1.14729e-07 2.95011e-08 1.34893e-08
7.72669e-08 6.64074e-08 1.15136e-08
7.15452e-08 7.05413e-08 1.15158e-08
7.01395e-08 6.79141e-08 1.10476e-08
-5.48481e-08 7.3186e-09 2.61015e-09
-5.44333e-08 9.96045e-09 2.75631e-09
8.53174e-08 6.12302e-08 8.26132e-09
8.68442e-08 6.21662e-08 1.01075e-08
-3.38702e-08 8.0087e-08 8.81282e-09
-4.12441e-08 7.72974e-08 8.02596e-09
3.3784e-08 7.70893e-08 8.97815e-10
3.21662e-08 7.57612e-08 2.69997e-09
-5.42354e-08 6.41554e-08 -2.33041e-08
-1.64511e-08 4.97663e-09 3.25068e-12
-5.34735e-08 6.39174e-08 -2.48234e-08
-3.65272e-08 6.59351e-08 1.73983e-08
-3.70734e-08 6.56232e-08 1.59575e-08
4.57487e-08 8.08811e-08 7.47998e-09
5.45016e-08 7.88311e-08 1.04158e-08
6.9519e-08 6.87988e-08 4.7262e-09
6.31936e-08 6.95e-08 4.80793e-09
4.63298e-08 8.15295e-08 9.54838e-09
5.78182e-08 8.20815e-08 -1.2064e-09
8.39173e-08 7.23874e-08 5.0999e-09
8.75121e-08 6.97485e-08 4.20753e-09
8.8151e-08 6.5988e-08 6.08025e-09
5.05935e-08 8.14954e-08 -1.0274e-09
6.31822e-08 7.90321e-08 -1.08596e-09
-2.94826e-09 8.06997e-08 -8.8742e-09
-5.19952e-08 6.34756e-08 -2.49541e-08
-4.86678e-08 6.67775e-08 -2.4877e-08
1.06879e-07 4.98432e-08 -4.42926e-09
1.08299e-07 5.08342e-08 -5.80967e-09
-1.27613e-08 8.13987e-08 -9.21888e-09
7.2986e-08 6.98955e-08 1.33647e-08
-9.78722e-09 8.1417e-08 -9.31378e-09
-1.09446e-07 3.37729e-08 -1.93696e-08
3.81836e-08 8.91543e-08 5.42725e-10
-1.2835e-08 8.11621e-08 -1.07566e-08
-1.03774e-07 -3.54218e-09 -6.37542e-09
2.33778e-08 7.65729e-08 3.76013e-09
1.58784e-08 7.57385e-08 4.35304e-09
-1.30335e-07 -7.24923e-09 -7.21996e-09
-1.29806e-07 -7.76994e-09 -7.01907e-09
-1.31188e-07 2.14988e-08 -7.44617e-09
-1.3051e-07 2.21839e-08 -9.74704e-09
-1.03267e-07 -3.98436e-09 -6.61304e-09
1.58331e-07 3.77328e-08 1.88757e-08
1.58597e-07 3.80091e-08 1.802e-08
1.59768e-07 3.76582e-08 1.97741e-08
5.15072e-08 8.07063e-08 -7.50496e-10
6.85875e-08 7.14385e-08 5.58435e-09
2.66998e-08 7.17867e-08 2.22247e-09
4.35242e-08 8.21266e-08 -1.22353e-09
-1.20133e-07 2.38907e-08 -2.20731e-08
6.90043e-08 -3.93849e-08 1.61086e-08
-1.16627e-07 2.64601e-08 -2.29857e-08
6.14495e-08 7.30939e-08 4.17004e-09
-3.95309e-08 3.27679e-08 -4.19809e-09
5.53285e-08 7.87037e-08 -1.55833e-09
-3.92394e-08 3.03485e-08 -4.10569e-09
-1.93996e-08 5.46944e-09 -9.6543e-10
-1.76915e-08 8.74937e-09 -5.14001e-10
-1.05989e-07 -1.54395e-08 -3.75764e-09
-4.19348e-08 3.65901e-08 -5.25526e-09
-1.06342e-07 -1.49786e-08 -3.74303e-09
6.885e-08 -4.171e-08 2.08727e-08
6.41298e-08 -4.41708e-08 2.14999e-08
-8.82469e-08 -2.57955e-08 -5.31758e-09
-8.9178e-08 -2.46137e-08 -5.26266e-09
-1.10028e-07 3.3144e-08 -1.68596e-08
-1.0966e-07 3.1854e-08 -1.62254e-08
6.48787e-08 -4.10216e-08 -2.92865e-09
6.56256e-08 -4.0946e-08 -2.68754e-09
-1.1116e-07 3.29111e-08 -1.85896e-08
-2.72182e-08 7.4695e-08 -1.77736e-08
-2.72212e-08 7.20414e-08 -1.83792e-08
6.14817e-08 6.51918e-08 -2.4279e-09
1.14545e-07 -3.03368e-08 1.84718e-08
1.1252e-07 -3.20192e-08 2.05636e-08
2.45025e-07 1.05851e-09 -3.63908e-09
2.41027e-07 2.18212e-09 -5.90821e-09
-8.61946e-08 4.31022e-08 1.45861e-08
-8.58347e-08 4.19493e-08 1.55462e-08
6.43501e-08 6.36519e-08 -2.73916e-09
2.35465e-08 7.74263e-08 2.81088e-09
2.04378e-08 7.86102e-08 4.11343e-09
1.26959e-08 7.78262e-08 4.51935e-09
5.45396e-08 7.38018e-08 2.07296e-09
8.82145e-08 6.36377e-08 4.84121e-09
1.86327e-07 2.49522e-08 -1.2135e-08
-2.87849e-08 7.25215e-08 -1.88735e-08
-3.36738e-08 7.28612e-08 -2.04367e-08
1.81329e-07 2.61915e-08 -1.35153e-08
9.93852e-08 6.0498e-08 -5.13979e-10
9.87055e-08 6.08323e-08 -5.52508e-10
1.96084e-07 2.14154e-08 2.54717e-09
1.97103e-07 2.11981e-08 2.84206e-09
1.79359e-07 2.73844e-08 -1.37044e-08
4.78124e-08 -4.20895e-08 -1.02329e-08
-1.38914e-07 -1.78729e-10 -1.03068e-08
-1.39399e-07 4.53859e-10 -1.04483e-08
-1.2092e-07 2.98369e-08 -2.34717e-08
1.26764e-07 4.90187e-08 1.66353e-08
8.25967e-08 7.03584e-08 5.91587e-09
8.68298e-08 6.81727e-08 5.06815e-09
1.85148e-08 7.31679e-08 4.37413e-09
1.99061e-08 7.38854e-08 3.41451e-09
-8.954e-09 7.48476e-08 -1.23884e-08
-4.11785e-08 3.1827e-08 2.26992e-09
1.61791e-07 3.47178e-08 7.42136e-09
1.60509e-07 3.57058e-08 7.76645e-09
-1.21405e-07 3.07881e-08 -2.31462e-08
-1.17667e-07 3.22225e-08 -2.47518e-08
-4.32194e-08 7.41249e-08 -1.442e-08
-4.50873e-08 7.11298e-08 -1.50615e-08
-6.33707e-08 -4.49524e-08 7.67553e-10
-6.41631e-08 -4.48009e-08 1.46932e-09
-2.3714e-08 6.91028e-08 1.25764e-08
-6.06291e-08 -4.69346e-08 1.39537e-09
-7.87686e-08 5.05504e-08 -2.07499e-08
-5.21123e-08 6.55088e-08 -2.36231e-08
-5.26607e-08 6.5058e-08 -2.20149e-08
-7.95917e-08 4.90794e-08 -2.04357e-08
1.39226e-07 -1.61714e-08 3.67416e-10
1.36617e-07 -1.882e-08 -3.33502e-09
-7.98865e-08 4.97478e-08 -1.82707e-08
-9.16967e-08 4.30146e-08 -2.21839e-08
-1.3678e-07 -4.83068e-09 -8.00698e-09
-1.37075e-07 -4.23188e-09 -8.19855e-09
-8.84907e-08 4.39101e-08 -2.25143e-08
9.18024e-08 6.38064e-08 1.70594e-08
1.53561e-08 7.86559e-08 1.68548e-11
1.60713e-08 7.51174e-08 1.79039e-09
-1.25986e-07 2.32173e-08 -5.79881e-09
-1.27689e-07 2.36221e-08 -7.00397e-09
-1.49819e-08 7.62006e-08 -1.31226e-08
-8.9242e-08 4.58641e-08 -2.49399e-08
-1.35771e-07 -4.3833e-09 -2.02343e-09
-1.36968e-07 -3.88952e-09 -1.8542e-09
5.71662e-08 7.47478e-08 9.11669e-09
5.05263e-08 7.84409e-08 8.78616e-09
1.14568e-07 -2.68921e-08 -1.25484e-08
1.19048e-07 -2.77556e-08 -1.41169e-08
-1.42359e-07 9.54383e-09 -1.33568e-08
-1.42813e-07 1.051e-08 -1.41981e-08
-4.1289e-09 8.36675e-08 -8.16153e-09
5.79814e-08 7.55124e-08 1.08035e-08
-7.50253e-08 5.0095e-08 2.12201e-08
-7.52329e-08 5.29786e-08 2.34292e-08
1.04209e-07 6.20243e-08 1.38387e-09
1.00537e-07 6.25582e-08 5.38035e-10
8.7264e-09 8.02654e-08 -6.44436e-09
-1.09507e-07 1.20749e-08 -1.40293e-08
-1.09596e-07 1.34783e-08 -1.44633e-08
2.00789e-07 1.97746e-08 7.22315e-09
1.98269e-07 2.08265e-08 8.20724e-09
-4.03012e-08 6.26841e-08 1.78756e-08
-3.099e-08 6.48822e-08 1.63318e-08
-3.35107e-08 6.47131e-08 1.79012e-08
-1.01696e-07 4.13641e-08 -2.64105e-08
-9.92403e-08 4.18979e-08 -2.50642e-08
6.36504e-08 -4.10776e-08 1.31156e-08
6.78195e-08 -4.03553e-08 1.20465e-08
-9.87601e-08 4.13415e-08 -2.5165e-08
9.22098e-08 6.06263e-08 1.2315e-08
9.29828e-08 6.28162e-08 1.5246e-08
1.2224e-07 5.14184e-08 2.63211e-09
9.70673e-08 6.70773e-08 2.39574e-09
9.41608e-08 6.86699e-08 3.41824e-09
9.15217e-08 7.06187e-08 2.04904e-09
5.33122e-08 8.6032e-08 2.95688e-09
-1.43014e-08 -8.23391e-10 6.81236e-10
-1.36204e-08 2.48514e-09 1.62988e-10
4.9828e-08 8.72258e-08 1.50887e-09
1.76295e-08 7.68629e-08 -6.28472e-09
-3.0679e-08 -5.37366e-08 -8.13168e-10
-4.37312e-08 5.05897e-08 5.41867e-09
-3.14014e-08 -5.414e-08 -1.85307e-09
1.7133e-08 7.64506e-08 -5.41521e-09
2.52164e-09 8.35572e-08 -7.25662e-09
2.75322e-07 -9.26095e-09 1.41375e-08
2.79246e-07 -9.5184e-09 1.65753e-08
2.84055e-07 -1.13081e-08 1.50289e-08
-2.75205e-08 7.34979e-08 -1.44845e-08
-1.35286e-07 1.54992e-08 -1.9065e-08
-1.34116e-07 1.61223e-08 -1.91448e-08
-2.02798e-08 7.47283e-08 -1.42381e-08
-2.72852e-08 7.29369e-08 -1.6466e-08
-3.76229e-08 6.35986e-08 1.85142e-08
1.01723e-08 8.79634e-08 -4.96725e-09
1.66378e-07 3.26298e-08 4.99654e-09
1.68774e-07 3.24217e-08 4.83759e-09
6.14114e-08 -3.77201e-08 -9.70635e-09
6.58761e-08 -3.73971e-08 -9.18996e-09
2.85001e-08 7.58295e-08 -4.05125e-09
2.28773e-09 8.56712e-08 -6.14706e-09
-2.15268e-08 7.90243e-08 -1.18162e-08
-5.42669e-08 7.49643e-08 -5.1332e-09
-4.85732e-08 7.96102e-08 -3.03471e-09
-4.972e-08 7.95644e-08 -4.64713e-09
6.87553e-08 -3.69786e-08 -1.50885e-08
7.34476e-08 -3.60009e-08 -1.45509e-08
-8.21573e-08 5.36663e-08 2.37339e-08
1.16726e-07 4.91115e-08 -1.84317e-08
1.1527e-07 4.85892e-08 -1.6642e-08
-1.26322e-07 -8.7069e-09 -2.61468e-09
-1.26045e-07 -8.03379e-09 -1.90903e-09
1.22982e-08 7.85372e-08 -6.95097e-09
1.04692e-09 7.77666e-08 -9.26969e-09
-1.39895e-07 1.64443e-08 -1.64822e-08
-1.40048e-07 1.52162e-08 -1.52006e-08
8.92463e-09 7.64558e-08 -8.69734e-09
-3.67199e-08 6.98601e-08 -1.79595e-08
-1.19345e-07 -1.30898e-08 -3.96649e-09
-3.42659e-08 7.14856e-08 -1.8938e-08
-1.37795e-07 -5.03558e-09 -7.91316e-09
-1.38299e-07 -4.58338e-09 -8.00101e-09
-3.62074e-08 7.01865e-08 -2.00198e-08
1.9795e-09 4.37037e-08 -8.91378e-09
-1.82157e-09 3.85767e-08 -7.02038e-09
1.08793e-07 5.527e-08 1.37816e-08
1.19233e-07 5.48333e-08 3.19965e-09
1.20776e-07 5.38387e-08 4.16885e-09
3.17085e-08 8.60502e-08 -5.27023e-10
-3.76331e-08 6.65801e-08 1.81062e-08
-3.72123e-08 6.59405e-08 1.93373e-08
5.43997e-08 7.53113e-08 9.82264e-09
6.53037e-08 7.1999e-08 1.15093e-08
6.28766e-08 7.34523e-08 1.02946e-08
2.23636e-08 7.55957e-08 -1.914e-09
2.66302e-08 7.80968e-08 -3.74469e-09
3.85736e-08 7.37696e-08 1.4876e-09
1.34812e-07 4.81669e-08 -4.42756e-08
1.45038e-07 4.4019e-08 2.08799e-08
1.44058e-07 4.34218e-08 1.78708e-08
4.13908e-08 7.21903e-08 -3.87345e-10
4.46553e-08 7.1785e-08 1.92525e-10
7.23435e-08 6.67608e-08 5.60703e-09
2.68171e-07 -7.23907e-09 1.20049e-08
2.66586e-07 -5.60653e-09 1.57685e-08
-8.26025e-08 5.26598e-08 2.30094e-08
4.58326e-08 7.4e-08 1.94631e-09
-2.16874e-08 4.27719e-08 -1.91372e-09
4.33863e-08 7.57565e-08 -8.7027e-09
3.58748e-08 7.87534e-08 -7.85253e-09
5.86079e-08 7.72777e-08 9.26715e-09
5.72151e-08 7.50824e-08 9.67002e-09
5.32977e-08 8.04858e-08 3.01983e-09
-6.24311e-08 6.06748e-08 -2.5409e-08
-3.11388e-08 7.41377e-08 -2.19372e-08
-5.64513e-08 6.46014e-08 -1.75171e-08
-5.64683e-08 6.26029e-08 -1.78218e-08
2.11031e-07 2.1161e-08 -4.59051e-08
2.01673e-07 2.57642e-08 -5.02369e-08
-8.90964e-08 -3.2638e-08 -7.28735e-09
-8.53543e-08 -3.35659e-08 -7.70182e-09
7.54916e-09 -5.72546e-08 6.09384e-09
7.53041e-09 -5.75916e-08 7.01236e-09
-8.72418e-08 4.19447e-08 1.4004e-08
-8.75622e-08 4.1969e-08 1.14689e-08
1.65598e-07 3.39143e-08 4.30908e-09
1.63608e-07 3.40364e-08 4.43516e-09
-3.12368e-08 7.51166e-08 -2.07969e-08
-1.07531e-07 3.60865e-08 2.03489e-08
1.36324e-08 9.08952e-08 2.31002e-09
2.19037e-08 9.18558e-08 1.59513e-09
-1.07936e-07 -1.80033e-08 -5.10541e-09
-1.08865e-07 -1.72408e-08 -5.0193e-09
-6.09451e-08 6.14469e-08 -2.37145e-08
1.35367e-07 4.81813e-08 -4.507e-08
1.64589e-08 8.29923e-08 -4.00532e-09
2.65134e-08 8.25444e-08 -3.64424e-09
1.96642e-07 2.16379e-08 1.52255e-08
1.95232e-07 2.24264e-08 1.44145e-08
6.18937e-08 7.19283e-08 4.60554e-09
6.72939e-08 6.95796e-08 3.96151e-09
-3.72732e-08 -5.78778e-08 -1.65199e-09
-3.92796e-08 -5.67614e-08 -2.73568e-09
2.01116e-07 1.87943e-08 -1.86877e-08
2.03985e-07 1.70486e-08 -1.68725e-08
-2.47208e-08 6.74905e-08 1.53648e-08
-2.75668e-08 6.45141e-08 1.60852e-08
-6.23789e-08 5.80326e-08 -2.37827e-08
-7.27292e-08 -3.52815e-08 7.2554e-10
1.31699e-07 4.69608e-08 1.76239e-09
1.08661e-07 6.30994e-08 2.26091e-08
-1.30303e-07 2.08651e-08 1.19778e-08
-1.31346e-07 2.02954e-08 1.18626e-08
-6.38983e-08 -4.8909e-09 1.38158e-09
-5.7369e-08 6.39596e-08 -1.91759e-08
-6.34949e-08 6.29249e-08 -2.03617e-08
4.48523e-09 7.48311e-08 6.96774e-09
4.62633e-09 7.12963e-08 8.26212e-09
1.08988e-07 6.44034e-08 2.50756e-08
1.96095e-08 -6.58945e-08 6.51276e-09
2.49754e-08 -6.59006e-08 6.50753e-09
1.8159e-08 8.40647e-08 3.69234e-09
-7.2251e-08 -3.51214e-08 6.09885e-10
-7.35962e-08 -3.43246e-08 8.37168e-10
1.42956e-07 4.21817e-08 1.58992e-09
1.44039e-07 4.14892e-08 6.99912e-10
5.39814e-08 6.49607e-08 -5.72864e-09
5.49419e-08 6.5637e-08 -7.29383e-09
2.62044e-08 6.99183e-08 2.05544e-09
3.02624e-08 6.82093e-08 1.54325e-09
1.24836e-08 7.53004e-08 5.12236e-09
9.24608e-10 3.72811e-08 5.9581e-09
8.12983e-09 7.30064e-08 6.84772e-09
1.05822e-07 5.6487e-08 1.12564e-08
1.04408e-07 5.57797e-08 8.82966e-09
1.13608e-07 5.24952e-08 8.61926e-09
1.08759e-07 5.42177e-08 1.01241e-08
1.46478e-07 5.29804e-08 3.73957e-08
1.43359e-07 5.54596e-08 3.75214e-08
-9.89693e-08 -2.83739e-08 -1.83502e-09
-3.95022e-08 -9.05757e-09 -2.26156e-09
-9.81985e-08 -2.87875e-08 -2.57764e-09
1.96717e-07 2.17569e-08 1.3043e-08
2.00534e-07 2.01521e-08 9.81589e-09
1.17183e-07 4.80624e-08 -1.29796e-08
1.24202e-07 4.53943e-08 -1.12495e-08
-8.62584e-08 -3.75424e-08 -5.52201e-09
-8.18299e-08 -3.93396e-08 -5.98848e-09
-8.52486e-08 -3.87438e-08 -5.61458e-09
3.1358e-08 -4.96771e-08 1.27269e-08
3.15641e-08 -4.91392e-08 1.16048e-08
3.32275e-08 -4.92875e-08 1.2648e-08
-1.23645e-08 7.45158e-08 1.05438e-08
-1.34248e-08 -6.30785e-08 1.90902e-09
-7.73092e-09 -6.54076e-08 3.17658e-09
-8.88303e-09 -6.53204e-08 2.62662e-09
-8.08564e-08 -2.73615e-08 -4.89463e-09
-8.38498e-08 -2.83988e-08 -6.02134e-09
-8.34168e-08 -2.83527e-08 -5.37471e-09
-9.03919e-08 4.61083e-08 -2.63023e-08
1.33374e-07 4.54212e-08 -4.12424e-10
-8.99202e-08 4.48296e-08 -2.69782e-08
-1.12177e-07 3.38892e-08 1.93837e-08
-1.25631e-09 7.58117e-08 -1.04432e-08
1.37487e-07 4.36589e-08 -4.43758e-08
1.23286e-07 4.70683e-08 -4.47005e-08
5.93747e-08 -3.93272e-08 -1.16931e-08
5.73045e-08 -3.91232e-08 -1.10389e-08
2.51699e-07 6.14182e-09 3.45547e-08
2.45992e-07 8.51754e-09 3.64453e-08
3.23546e-09 7.8919e-08 -8.57686e-09
3.25265e-09 7.46574e-08 -9.47874e-09
8.4948e-08 5.69739e-08 -7.07195e-09
1.10394e-07 4.96227e-08 -6.24892e-09
8.54053e-08 5.75008e-08 -8.6954e-09
8.41201e-08 5.67237e-08 -6.42297e-09
2.55106e-08 -5.27718e-08 -5.82314e-09
2.14973e-08 -5.18653e-08 -5.39656e-09
1.48077e-07 4.02505e-08 5.152e-09
1.49732e-07 4.02772e-08 6.57815e-09
1.51097e-07 3.89458e-08 5.29664e-09
1.55155e-08 7.70173e-08 -4.61402e-09
3.76183e-09 7.79873e-08 -7.59473e-09
-2.85996e-09 1.98746e-08 3.11736e-09
1.03089e-07 5.16179e-08 -6.2143e-09
-3.46148e-08 -1.55318e-08 -1.74959e-09
7.52996e-09 7.69188e-08 -5.66127e-09
2.15193e-08 -4.47176e-08 -8.14471e-09
2.47197e-08 -4.35964e-08 -8.86142e-09
2.49934e-08 -4.26633e-08 -8.09183e-09
1.79696e-07 2.65565e-08 4.18302e-10
1.8194e-07 2.59068e-08 2.37495e-09
1.83102e-07 2.52123e-08 1.3973e-09
4.78176e-08 -4.79015e-08 1.39355e-08
4.33429e-08 -4.82177e-08 1.40108e-08
4.21949e-08 -4.87154e-08 1.33384e-08
1.26831e-07 4.81454e-08 7.78935e-09
1.28157e-07 4.73992e-08 8.63619e-09
-1.03369e-07 1.48828e-08 -1.39077e-08
-1.06414e-07 1.51587e-08 -1.48581e-08
1.31846e-07 4.58851e-08 6.98819e-09
1.56662e-07 -2.57818e-08 1.9985e-08
-1.32569e-07 7.76177e-09 -1.4888e-08
-1.33373e-07 6.44004e-09 -1.39756e-08
1.45677e-07 -2.36306e-08 1.61857e-08
1.47565e-07 -2.45568e-08 1.77145e-08
1.14074e-07 5.62197e-08 2.06402e-08
1.18097e-07 5.31343e-08 1.962e-08
2.49471e-08 6.37598e-08 1.55944e-08
1.23786e-07 5.27263e-08 2.05248e-08
-5.93609e-08 -4.31021e-08 -5.27188e-09
2.47849e-08 6.54495e-08 1.6214e-08
-5.68796e-08 -4.51935e-08 -5.48317e-09
-5.18513e-08 -4.48604e-08 -4.95799e-09
2.10431e-07 1.60419e-08 7.07981e-09
-7.61338e-08 5.59068e-08 2.36766e-08
-7.65096e-08 5.69895e-08 2.34522e-08
2.08814e-07 1.6743e-08 6.40708e-09