# vtk DataFile Version 2.0
S, Created by Mohamad Ibrahim Cheikh
ASCII
DATASET UNSTRUCTURED_GRID
POINTS 17222 double
-215.943 10.0584 -43.9739
-199.293 30.42 -44.2263
-49.3984 -83.1237 23.145
-50.9336 -83.5714 21.0289
-118.141 -36.4963 68.5801
-115.348 -38.3119 68.1707
-169.615 -58.6231 -28.0198
-200.224 27.5572 -45.5678
-202.106 52.3505 -1.58607
-201.634 52.5789 1.36854
-23.0243 85.1676 -20.6296
-20.1551 85.5842 -19.2254
-139.876 44.8118 -57.7971
4.33534 17.6458 -86.1993
-142.519 43.2713 -58.1793
-219.32 -9.35488 42.0405
-217.589 -11.8837 42.5008
-225.96 11.5862 -36.8611
-227.202 9.22709 -36.5912
-132.941 -28.4097 -69.0879
2.10741 -5.14996 87.8461
-133.117 -30.9194 -67.9596
-160.919 -13.9383 66.177
0.42697 -0.512725 87.9984
-159.351 -11.3716 67.1254
-145.159 -33.6041 -63.5218
-144.216 -36.6118 -62.1067
-156.134 45.2743 52.0542
-153.681 46.434 51.9264
-7.94315 11.3457 -87.2213
0.580764 9.36595 87.4999
-219.364 8.7751 42.1375
-219.111 5.89193 42.7953
-221.123 40.9084 -9.17723
-158.689 19.5446 65.4136
-222.784 39.5638 -10.1067
205.689 -37.2699 -34.2804
208.612 -36.0011 -33.4647
-167.962 61.6455 22.1339
-167.762 60.4846 25.2967
-158.819 33.512 59.4375
-156.392 35.0486 59.3391
-185.059 -11.0657 58.555
-15.8988 11.5406 -87.0624
-182.707 -12.9476 59.0711
-213.426 46.5531 0.170593
-211.227 47.7441 1.42888
221.53 -31.4844 -27.2833
-221.126 41.5221 -5.7834
-218.743 43.1147 -5.19806
-217.412 44.1403 -2.93633
238.113 -2.58946 -28.2089
237.16 -5.03099 -28.8545
-11.3607 -7.25904 87.61
223.125 -29.3282 -28.0838
-185.052 -31.4571 -50.6154
-212.234 9.07268 -46.3361
-181.613 -32.7736 -51.3002
-177.315 32.0786 -53.532
-221.625 -38.2918 16.2554
-218.722 -40.3756 16.0253
-216.94 -40.4549 18.5867
-144.284 70.2356 16.1937
-144.828 69.4609 18.7395
-224.656 19.9131 -34.1812
-222.996 22.6409 -33.8122
-216.443 43.9984 -8.5187
-213.735 45.6104 -8.41055
-184.954 28.2908 -52.4933
-182.762 29.7926 -52.6023
-148.154 68.2837 19.8499
-151.163 67.8407 18.549
-192.994 -12.1385 55.1046
-190.412 -10.6807 56.4889
-131.26 -61.918 -42.4358
-131.877 -63.5404 -39.7161
-179.828 29.9446 -53.7415
-179.907 27.2945 -55.1032
-162.725 24.3696 62.516
-165.471 23.1355 62.1009
-187.085 1.61744 58.7896
4.01813 3.52214 87.9182
-188.739 -0.500559 58.1592
-122.763 -66.2006 -38.9406
-119.77 -66.6044 -39.3906
-175.272 -32.81 53.9113
-189.817 54.4623 -19.148
13.0737 1.76275 -87.8633
-175.921 -30.0158 55.2636
-200.645 8.29527 -52.4055
-202.723 5.87257 -51.7496
-174.251 -29.8057 -56.0197
-171.542 -28.6291 -57.6339
-175.789 47.198 41.6296
-176.715 45.0097 43.5297
-159.999 10.9338 -67.0096
-159.782 7.8967 -67.4977
-118.277 -68.1733 -37.1975
-230.222 34.8534 -6.33756
-241.857 -22.5775 8.52584
-242.821 -22.2338 5.55882
-236.884 -0.846929 -29.5498
-236.034 -4.28677 -30.0796
-140.597 68.333 -25.5823
-142.057 68.8045 -23.2217
-141.532 62.887 36.5621
-142.061 64.428 33.4998
-196.004 44.8569 -32.0683
-193.265 46.1643 -32.2474
-143.94 61.5663 37.6428
-212.395 32.7465 -33.8916
-209.672 -34.9565 33.7595
-211.456 -36.2156 30.9536
-130.712 72.8638 -18.5221
-130.192 72.2074 -21.3287
-204.212 35.0148 -37.5807
-202.005 37.0463 -37.0898
-160.248 64.9986 19.371
-162.345 64.8695 17.5836
-210.144 45.3467 -16.7652
-211.777 43.6102 -18.7407
-210.553 34.8482 -33.1953
-207.621 35.6569 -34.5697
82.9007 -33.2654 -76.1315
-170.139 -43.7335 47.8261
-173.346 -43.1592 46.9296
-218.686 36.7665 23.1764
-221.355 35.9573 21.2658
-222.391 28.1277 29.9615
-221.124 30.5856 28.674
-174.191 59.1959 -22.913
-238.159 14.1675 -24.4761
-172.3 60.5969 -20.9134
-169.12 61.6043 -21.1473
-190.034 36.031 -44.9937
-196.408 32.9003 -44.0303
-192.947 33.7767 -45.224
-202.633 42.2678 -30.5027
-217.003 31.4978 -31.41
-205.727 40.8544 -29.887
-207.414 38.6572 -31.3467
-241.232 10.6429 -22.4973
-143.29 -40.6624 59.8067
-125.611 -70.3636 29.3469
195.949 -0.0867198 -55.1649
-202.845 -12.9362 50.3898
-200.748 -11.2477 51.8034
-203.801 20.6747 47.2381
-206.115 18.5973 46.8706
-122.661 -71.3019 28.6005
-159.713 33.1936 -59.323
-157.801 29.8263 -61.6906
-160.729 30.3218 -60.5124
15.3465 -16.5675 86.2594
12.288 -15.621 86.4957
-184.07 37.8305 -46.5261
-180.685 38.7612 -47.3771
-241.315 -14.5405 20.0766
-240.446 -17.5151 18.9469
-227.165 11.927 35.8311
-225.25 10.5182 37.7031
-186.796 -36.0963 -46.5737
23.0031 9.27543 87.1389
-184.185 -37.011 -47.1257
-197.094 -25.9226 48.1254
-199.831 -25.1439 47.147
-113.908 15.1747 -76.9753
-114.884 19.8959 -75.7117
-205.07 28.4274 -42.2757
-205.699 26.054 -43.4153
-116.031 17.1627 -76.1652
-237.512 20.9485 19.966
-227.254 33.6228 -17.0481
-225.089 35.7228 -16.2776
-212.354 37.5214 -28.5525
-237.598 18.5067 22.1348
-235.48 23.4924 20.0808
-228.273 -4.88574 -36.6124
-167.969 -37.7354 -53.5335
-169.634 -35.2969 -54.5444
-172.577 49.11 41.0597
-169.536 49.2286 42.4453
-232.951 -7.95481 -32.2009
-154.618 31.7314 -61.7267
-229.037 -7.28191 -35.6161
-146.914 -68.903 -18.8117
-241.599 12.9746 -20.721
-230.75 -8.79396 -33.8791
47.5919 -60.5975 -61.6006
-223.873 6.5789 39.5554
-223.786 3.59612 39.9968
48.4081 -82.8294 -24.421
51.0986 -82.4454 -25.0416
-106.478 -79.7154 -1.18085
-108.796 -79.2953 -2.66354
50.955 -60.4788 -61.3875
-99.9535 70.9204 -38.6151
-98.1841 69.8609 -41.0269
-94.8569 70.7625 -40.4358
-235.343 18.7858 24.7003
-216.256 28.3048 -34.8883
-205.188 7.93165 50.2642
-236.239 15.8785 25.6742
-30.0036 -68.4288 -54.3257
183.634 51.7751 30.5748
-31.6109 -66.2406 -56.8669
-216.109 24.553 -37.7261
6.6631 -10.1322 -87.3837
-233.313 20.7502 25.4744
9.83264 -10.1846 -87.3409
41.8296 2.88496 -86.7263
39.2197 4.6373 -86.7996
55.1676 -61.2241 60.1913
1.56911 -12.2094 -87.1472
52.1215 -60.7592 60.9895
89.6463 50.4674 64.9086
90.8287 48.3036 66.338
89.117 -50.7976 64.7401
86.0196 -52.0281 64.2742
-151.721 -68.7276 -14.2214
-148.887 -69.5796 -13.7378
215.052 42.6855 -16.1207
215.959 43.1339 -13.1733
-146.939 -69.6089 -15.9746
-194.007 -20.8624 -51.9676
-196.232 -21.8158 -50.5334
-199.718 24.9647 47.3004
123.046 72.3266 25.6756
125.321 71.2526 27.2812
-1.17526 87.2214 11.6733
-3.14514 86.8755 13.9798
-181.642 -53.902 28.2689
-178.081 -55.1128 28.7046
-197.921 26.6743 47.2919
-226.178 7.20383 37.8017
-228.185 5.50553 36.5917
-228.153 2.56654 36.9381
-212.895 20.5995 -42.0784
-205.831 37.6557 -33.7511
-66.8627 77.8819 33.6315
-192.236 -22.7174 -51.9954
-193.316 -24.9346 -50.467
-68.2701 76.7348 35.849
-210.045 42.5999 22.973
-211.963 42.4568 20.9964
-74.8582 83.9149 4.0281
-74.0155 83.819 6.90378
-71.3487 75.9594 36.7549
181.772 36.9275 -48.3232
12.6171 -85.6278 -19.8087
9.30694 -85.7733 -19.3995
-110.785 -74.7861 -25.464
-131.828 58.0221 -47.4318
-220.27 33.9658 -25.4981
-218.569 36.0585 -24.3923
-215.641 4.13087 45.0977
-213.063 5.02725 46.4852
-203.391 -11.1915 -50.538
-8.09605 -7.45683 87.6377
-125.874 74.9693 -13.5565
-128.762 74.2262 -14.3046
-114.351 -74.1297 -25.4533
-115.295 -72.9656 -28.1523
-230.438 -21.6967 -27.7842
-228.392 -23.5681 -28.3235
212.011 -37.2022 -29.2729
209.403 -37.8359 -30.7233
-211.1 -16.8724 44.7597
214.287 -34.896 -30.0729
-195.278 -48.2953 -27.2555
-191.289 -34.8105 -45.3027
-194.394 -34.0774 -44.2288
-196.603 -49.0981 -24.5177
71.6179 74.2572 -40.0239
74.4076 73.1803 -41.3619
-199.798 -47.8695 -23.7735
-175.221 -58.1939 -24.4656
32.1147 -85.8028 -15.9879
29.746 -85.6632 -17.2476
-174.86 -57.0228 -27.3673
-134.846 40.5584 -62.232
-107.92 2.71866 79.4399
-110.757 1.16759 78.9985
-118.085 -77.663 2.29645
-117.469 -77.8053 -0.951326
-212.427 -12.7668 -45.3467
-171.973 -56.9443 -29.6733
17.6133 -82.1302 30.9943
15.8155 -83.0214 28.6501
-136.653 21.5736 -70.6562
-138.494 19.0335 -70.9468
93.316 68.9536 -43.8553
94.8204 70.4485 -40.9908
-34.503 -85.5847 -16.5382
-37.4179 -85.2583 -17.4242
-233.461 -4.40691 -32.4286
-133.878 22.891 -70.8918
-140.474 -48.6605 54.4082
-137.321 -48.3405 55.6642
-215.153 44.1716 11.201
-216.546 42.6533 13.5525
-223.943 -0.0749244 -40.0505
9.24117 -61.9545 -62.4114
6.46723 -61.1505 -63.2416
-63.4045 84.1442 -13.0983
-66.6108 83.6841 -14.062
-164.436 -29.7855 59.5517
-163.213 -25.0348 62.0958
-164.925 -27.0946 60.661
-50.01 -56.4863 -65.1698
-48.5456 -54.1437 -67.2602
200.621 46.2532 26.0181
199.984 47.995 23.3244
-45.2882 -54.1722 -67.5149
-152.99 40.2431 -57.0868
-150.018 41.2646 -57.3226
-192.89 55.909 7.9346
-223.74 39.9596 -4.29291
-225.791 38.3517 -5.60893
-228.372 36.5441 -4.82982
-239.997 19.0112 -18.1861
28.9355 10.2317 86.8148
25.4378 11.399 86.8035
-241.929 17.3868 -16.6091
-213.178 2.32709 -46.634
206.783 -15.286 47.7001
-33.3764 -12.6654 86.2972
203.899 -16.2637 48.8821
-215.687 2.87119 -45.1684
-229.477 -2.10789 -35.9499
28.5985 86.8617 -9.94505
30.5974 86.4814 -12.2618
33.571 86.4824 -11.2611
-215.821 -17.9146 -41.4779
-36.3887 -80.2086 -33.8891
-35.5191 -79.1217 -36.4595
-215.804 -15.1293 -42.5837
-213.409 -19.1971 -42.4213
-152.786 -29.387 63.4227
-240.074 2.0976 -26.1392
-121.376 76.8795 -5.46642
-120.205 77.2581 -2.48176
188.877 46.5079 -34.8336
188.722 48.4895 -32.1295
-214.455 7.59872 -45.3383
-239.385 -0.981967 -26.965
-230.329 -12.4652 -33.0686
-242.956 -21.8146 -6.42814
-245.841 -18.3147 -3.02103
-244.968 -18.9383 -6.19385
133.339 52.0506 -53.4602
132.895 53.9603 -51.6723
-91.3744 -46.7539 67.3488
-106.977 53.4618 59.0316
-105.674 51.7086 60.8525
35.6634 -76.3851 41.8761
33.613 -75.4534 43.7316
-217.706 0.431193 -44.0583
-217.433 -4.72712 -43.9713
-61.0066 -83.0417 -19.8094
-58.0675 -83.5892 -18.5483
-216.473 -1.84477 -44.7598
-202.692 -24.6857 -45.8768
77.5556 -76.7014 -33.5334
-196.493 -24.4115 -49.2045
31.2339 -86.4668 -12.1678
28.5792 -86.6802 -11.4256
-198.682 -25.8955 -47.3345
-8.04393 17.7064 86.1543
-5.62606 15.7966 86.5482
-149.855 48.9843 -50.9429
-199.074 53.4919 -5.53375
-196.267 54.6038 -6.80466
-235.64 10.6268 -28.8612
-150.28 -27.8808 64.8203
-147.378 -29.1236 65.089
-150.347 22.1908 -66.9635
-146.532 27.0178 -66.2211
-149.333 25.0916 -66.2129
-106.04 6.00634 79.5691
-107.231 8.42877 79.1529
-167.688 12.1853 -64.4428
-9.43771 61.3828 62.9702
-107.144 65.1497 -45.7607
-110.827 64.1845 -46.0498
-200.101 13.9186 -51.4598
[...]
POINT_DATA 17222
VECTORS F double
3.22422e-08 7.5515e-08 -2.11189e-09
7.18973e-08 6.50926e-08 5.10683e-09
-1.38183e-07 1.08595e-08 2.89339e-09
-1.3788e-07 1.08227e-08 2.12438e-09
-5.60731e-08 6.28745e-08 2.16338e-08
-5.67118e-08 6.05677e-08 2.22907e-08
-8.80892e-08 4.21627e-08 -2.29282e-08
6.48046e-08 6.62329e-08 5.19241e-09
1.14941e-07 5.44039e-08 2.50534e-09
1.15316e-07 5.4063e-08 3.01774e-09
2.19971e-07 1.03942e-08 1.28539e-08
2.23828e-07 9.00431e-09 1.13551e-08
9.93189e-08 5.77218e-08 1.53255e-08
1.17271e-08 4.90178e-08 1.01066e-08
9.77734e-08 5.84148e-08 1.41231e-08
-1.13736e-08 7.35241e-08 9.09632e-09
-1.48502e-08 7.06114e-08 1.04357e-08
3.53226e-08 7.80017e-08 -1.99224e-09
2.94531e-08 7.99438e-08 -2.23098e-09
-3.33596e-08 7.79567e-08 -2.41976e-08
-3.8035e-08 2.21291e-08 1.40905e-09
-4.00588e-08 7.69913e-08 -2.54219e-08
-1.17124e-08 6.89774e-08 1.10412e-08
-3.06568e-08 2.57001e-08 1.67931e-10
-5.02005e-09 6.69336e-08 9.88005e-09
-4.14342e-08 7.22398e-08 -2.66239e-08
-4.74214e-08 6.89692e-08 -2.71757e-08
9.88127e-08 5.10562e-08 -8.11983e-09
9.90327e-08 5.21005e-08 -1.07059e-08
2.94654e-09 5.86032e-08 7.59019e-09
-1.51151e-08 2.86027e-08 -3.04933e-09
2.7967e-08 7.37583e-08 2.46507e-09
2.13209e-08 7.27915e-08 3.34316e-09
9.6148e-08 6.43527e-08 3.22861e-09
5.00209e-08 6.40397e-08 -4.27745e-09
9.37379e-08 6.56497e-08 4.0166e-09
-6.07724e-08 -4.23795e-08 1.43141e-09
-5.98565e-08 -4.30055e-08 5.82247e-10
1.29588e-07 4.40135e-08 -2.18803e-09
1.27306e-07 4.38515e-08 -1.48561e-09
7.64035e-08 5.93184e-08 -8.45029e-09
7.94299e-08 5.61918e-08 -7.55968e-09
-7.02542e-09 6.67277e-08 9.89177e-09
6.49259e-09 6.34119e-08 8.26038e-09
-7.661e-09 6.50806e-08 1.13638e-08
1.05827e-07 5.93885e-08 3.03199e-09
1.07811e-07 5.83352e-08 2.03278e-09
-5.53822e-08 -4.81515e-08 5.10886e-10
9.75557e-08 6.4129e-08 3.7483e-09
9.97354e-08 6.2351e-08 3.31755e-09
1.02503e-07 6.19927e-08 2.71186e-09
-7.33956e-09 -6.19953e-08 -1.89432e-09
-1.22585e-08 -6.04927e-08 -1.7883e-09
-4.01931e-08 3.36311e-08 2.14845e-09
-5.22554e-08 -4.98611e-08 1.24139e-09
-4.261e-08 6.6064e-08 -2.19857e-08
3.02372e-08 7.41813e-08 -2.43135e-09
-4.23641e-08 6.51684e-08 -2.32717e-08
7.29549e-08 6.32811e-08 8.33528e-09
-7.1304e-08 5.39904e-08 8.16037e-09
-7.22764e-08 5.12331e-08 8.30731e-09
-7.24334e-08 5.21085e-08 9.91098e-09
1.48033e-07 3.73251e-08 -4.07324e-10
1.45496e-07 3.71633e-08 -8.26122e-11
5.17822e-08 7.61084e-08 2.67088e-09
5.80261e-08 7.33566e-08 2.26718e-09
1.01507e-07 6.18684e-08 3.78609e-09
1.03518e-07 6.01149e-08 3.92853e-09
6.63554e-08 6.54056e-08 6.62614e-09
6.84415e-08 6.40626e-08 7.17025e-09
1.43471e-07 3.84468e-08 -1.15514e-09
1.42043e-07 3.87525e-08 -1.1168e-11
-9.44753e-09 6.68449e-08 1.06737e-08
-7.82627e-09 6.71871e-08 9.47375e-09
-9.52521e-08 4.56759e-08 -3.05743e-08
-9.84512e-08 4.43962e-08 -3.10047e-08
6.96004e-08 6.56011e-08 8.03929e-09
6.27873e-08 6.53557e-08 7.27525e-09
5.83326e-08 6.42639e-08 -6.46164e-09
5.75194e-08 6.34895e-08 -4.8887e-09
1.54921e-08 6.69153e-08 4.19488e-09
-2.48679e-08 2.35077e-08 -8.02608e-10
1.11204e-08 6.87935e-08 5.01038e-09
-1.03999e-07 4.11338e-08 -2.97886e-08
-1.03432e-07 4.07783e-08 -3.04477e-08
-4.4723e-08 5.80045e-08 1.74999e-08
1.15844e-07 5.11009e-08 4.74906e-09
-1.97755e-08 3.20588e-08 2.829e-10
-3.81438e-08 6.03068e-08 1.78891e-08
3.10634e-08 7.16261e-08 -3.22333e-09
2.62664e-08 7.42517e-08 -4.17152e-09
-3.66377e-08 6.71467e-08 -2.17735e-08
-3.5846e-08 6.94686e-08 -2.14455e-08
1.02847e-07 5.01446e-08 -3.68142e-09
9.67754e-08 5.09155e-08 -4.54689e-09
3.55707e-08 7.68114e-08 2.13485e-09
2.91036e-08 7.58173e-08 4.35181e-10
-1.07691e-07 3.83149e-08 -2.82977e-08
8.63403e-08 7.03489e-08 2.88645e-09
-5.39965e-08 7.21308e-08 3.47841e-09
-5.37584e-08 7.23751e-08 1.97966e-09
4.01094e-09 8.38148e-08 -6.33895e-09
-4.15164e-09 8.11812e-08 -7.58109e-09
1.44168e-07 3.95314e-08 8.58722e-09
1.44614e-07 3.97732e-08 9.53521e-09
1.32909e-07 3.97379e-08 -5.3599e-09
1.36577e-07 4.02164e-08 -6.43686e-09
9.89119e-08 5.72605e-08 6.07928e-09
1.00013e-07 5.67603e-08 7.87134e-09
1.30595e-07 4.12087e-08 -6.25947e-09
7.66168e-08 6.66946e-08 5.6564e-09
-5.77282e-08 5.72833e-08 1.54186e-08
-6.00516e-08 5.642e-08 1.57859e-08
1.54242e-07 3.59811e-08 8.27945e-09
1.53844e-07 3.62352e-08 7.70153e-09
8.08284e-08 6.3907e-08 5.76976e-09
8.44152e-08 6.13635e-08 5.0032e-09
1.36292e-07 4.14378e-08 -1.00368e-09
1.35487e-07 4.17377e-08 -8.28665e-10
1.02652e-07 5.99433e-08 4.60391e-09
9.88217e-08 6.12585e-08 5.82954e-09
8.11952e-08 6.43072e-08 4.45633e-09
8.24801e-08 6.43839e-08 5.76106e-09
-6.30247e-08 -1.68468e-08 -1.04111e-09
-6.27953e-08 5.14474e-08 1.9695e-08
-6.313e-08 5.06264e-08 1.801e-08
8.68798e-08 6.40156e-08 -1.18735e-09
8.53073e-08 6.45068e-08 -3.58038e-10
6.81209e-08 6.86356e-08 -2.53002e-09
7.39688e-08 6.674e-08 -1.35229e-09
1.23866e-07 4.75312e-08 7.50899e-09
4.04959e-08 8.38144e-08 2.72245e-10
1.2726e-07 4.638e-08 6.02252e-09
1.28337e-07 4.55523e-08 7.04291e-09
7.99933e-08 6.14723e-08 7.86301e-09
7.49632e-08 6.3302e-08 6.3607e-09
7.63801e-08 6.45471e-08 8.31159e-09
9.42685e-08 6.0365e-08 6.97753e-09
7.42389e-08 6.72982e-08 4.69203e-09
9.28623e-08 6.09243e-08 5.02167e-09
8.83217e-08 6.2852e-08 5.96125e-09
3.13901e-08 8.58927e-08 -5.75232e-10
-5.71595e-08 5.75697e-08 2.23749e-08
-1.11575e-07 3.01613e-08 1.38477e-08
-4.81997e-09 -4.73936e-08 -2.02163e-09
-1.24776e-08 6.64052e-08 1.08983e-08
-1.1097e-08 6.73901e-08 9.36704e-09
5.1163e-08 6.52632e-08 -1.53913e-09
4.79978e-08 6.71419e-08 -7.98778e-10
-1.11536e-07 2.86978e-08 1.29799e-08
7.62695e-08 6.47842e-08 1.11099e-08
7.07443e-08 6.8829e-08 1.11225e-08
6.93577e-08 6.62581e-08 1.06463e-08
-5.33495e-08 6.97017e-09 2.50078e-09
-5.29383e-08 9.5638e-09 2.64796e-09
8.38884e-08 5.97111e-08 7.91826e-09
8.53989e-08 6.06127e-08 9.71541e-09
-3.26613e-08 7.81268e-08 8.51986e-09
-3.98763e-08 7.54188e-08 7.76322e-09
3.32803e-08 7.51631e-08 8.12635e-10
3.16961e-08 7.38611e-08 2.57855e-09
-5.20007e-08 6.27093e-08 -2.30677e-08
-1.57531e-08 4.60156e-09 1.93254e-11
-5.12374e-08 6.24888e-08 -2.45594e-08
-3.5158e-08 6.42618e-08 1.69861e-08
-3.57054e-08 6.39695e-08 1.55874e-08
4.61023e-08 7.92522e-08 7.27111e-09
5.45789e-08 7.71635e-08 1.01381e-08
6.84209e-08 6.70663e-08 4.46323e-09
6.22716e-08 6.77641e-08 4.54405e-09
4.66133e-08 7.9829e-08 9.29427e-09
5.67296e-08 7.99815e-08 -1.29554e-09
8.22528e-08 7.05035e-08 4.81092e-09
8.57411e-08 6.79389e-08 3.94056e-09
8.64637e-08 6.42996e-08 5.76731e-09
4.96744e-08 7.94317e-08 -1.13029e-09
6.19354e-08 7.70168e-08 -1.18068e-09
-2.18854e-09 7.87334e-08 -8.836e-09
-4.9677e-08 6.21243e-08 -2.47079e-08
-4.64427e-08 6.53471e-08 -2.46039e-08
1.04514e-07 4.86376e-08 -4.39251e-09
1.05908e-07 4.96044e-08 -5.74144e-09
-1.17846e-08 7.94263e-08 -9.18379e-09
7.21682e-08 6.81962e-08 1.2925e-08
-8.84775e-09 7.94394e-08 -9.27591e-09
-1.06113e-07 3.30027e-08 -1.94222e-08
3.78441e-08 8.68724e-08 3.73098e-10
-1.18398e-08 7.91887e-08 -1.06821e-08
-1.01487e-07 -2.93441e-09 -6.71287e-09
2.31466e-08 7.46627e-08 3.62088e-09
1.58253e-08 7.38753e-08 4.1984e-09
-1.27428e-07 -6.90211e-09 -7.5149e-09
-1.26908e-07 -7.40808e-09 -7.31498e-09
-1.27655e-07 2.09909e-08 -7.7625e-09
-1.26985e-07 2.16678e-08 -1.00322e-08
-1.00989e-07 -3.3889e-09 -6.92414e-09
1.5544e-07 3.67799e-08 1.82903e-08
1.55734e-07 3.70543e-08 1.74667e-08
1.56909e-07 3.67027e-08 1.91645e-08
5.05589e-08 7.86527e-08 -8.41683e-10
6.74589e-08 6.9629e-08 5.29612e-09
2.64037e-08 7.00213e-08 2.14689e-09
4.27895e-08 8.00615e-08 -1.31089e-09
-1.17075e-07 2.40098e-08 -2.23265e-08
6.74996e-08 -3.86381e-08 1.57954e-08
-1.13586e-07 2.6565e-08 -2.32137e-08
6.05366e-08 7.12503e-08 3.91532e-09
-3.81004e-08 3.35374e-08 -4.2444e-09
5.42759e-08 7.67157e-08 -1.62874e-09
-3.78175e-08 3.1123e-08 -4.15039e-09
-1.88264e-08 6.60333e-09 -8.92081e-10
-1.70749e-08 9.92081e-09 -4.14569e-10
-1.03483e-07 -1.51961e-08 -3.84472e-09
-4.03981e-08 3.72743e-08 -5.31127e-09
-1.0383e-07 -1.47472e-08 -3.82782e-09
6.76138e-08 -4.11977e-08 2.0599e-08
6.29763e-08 -4.36029e-08 2.11925e-08
-8.61405e-08 -2.53049e-08 -5.33794e-09
-8.70489e-08 -2.41559e-08 -5.29044e-09
-1.06703e-07 3.23422e-08 -1.693e-08
-1.06333e-07 3.10784e-08 -1.63166e-08
6.33199e-08 -4.01617e-08 -2.92683e-09
6.40577e-08 -4.00872e-08 -2.69024e-09
-1.07814e-07 3.21434e-08 -1.86495e-08
-2.56169e-08 7.29634e-08 -1.75827e-08
-2.56292e-08 7.03534e-08 -1.81876e-08
6.02498e-08 6.35832e-08 -2.41279e-09
1.12286e-07 -2.99074e-08 1.83661e-08
1.10301e-07 -3.15613e-08 2.03978e-08
2.40448e-07 8.39671e-10 -3.31021e-09
2.36443e-07 1.95121e-09 -5.61287e-09
-8.35455e-08 4.18963e-08 1.41629e-08
-8.31818e-08 4.07709e-08 1.50994e-08
6.30484e-08 6.20934e-08 -2.71787e-09
2.33118e-08 7.55113e-08 2.68676e-09
2.02854e-08 7.66479e-08 3.95511e-09
1.27246e-08 7.59112e-08 4.34809e-09
5.38378e-08 7.19387e-08 1.86854e-09
8.65597e-08 6.20182e-08 4.56408e-09
1.82459e-07 2.42586e-08 -1.17653e-08
-2.71338e-08 7.08529e-08 -1.86744e-08
-3.19138e-08 7.11894e-08 -2.02063e-08
1.77551e-07 2.54745e-08 -1.31313e-08
9.71587e-08 5.8973e-08 -5.97224e-10
9.64981e-08 5.93009e-08 -6.44664e-10
1.92103e-07 2.08609e-08 2.5003e-09
1.93089e-07 2.06447e-08 2.79727e-09
1.75606e-07 2.66293e-08 -1.32983e-08
4.65692e-08 -4.11884e-08 -1.00286e-08
-1.35715e-07 1.01303e-11 -1.0627e-08
-1.36193e-07 6.27098e-10 -1.0772e-08
-1.17448e-07 2.93315e-08 -2.35857e-08
1.24524e-07 4.77909e-08 1.60892e-08
8.10255e-08 6.85468e-08 5.61491e-09
8.51349e-08 6.64197e-08 4.78932e-09
1.83898e-08 7.13763e-08 4.22777e-09
1.97634e-08 7.20745e-08 3.29575e-09
-7.8699e-09 7.3055e-08 -1.23002e-08
-3.9901e-08 3.09799e-08 2.1847e-09
1.58441e-07 3.38588e-08 7.13093e-09
1.57176e-07 3.48217e-08 7.4722e-09
-1.1793e-07 3.02556e-08 -2.32512e-08
-1.14228e-07 3.16775e-08 -2.48285e-08
-4.15239e-08 7.23198e-08 -1.43103e-08
-4.33507e-08 6.93881e-08 -1.49407e-08
-6.21444e-08 -4.38426e-08 6.14148e-10
-6.29203e-08 -4.36901e-08 1.30018e-09
-2.27322e-08 6.73675e-08 1.22685e-08
-5.94766e-08 -4.57757e-08 1.23046e-09
-7.61012e-08 4.93079e-08 -2.06166e-08
-4.99508e-08 6.40192e-08 -2.33697e-08
-5.05037e-08 6.35644e-08 -2.17988e-08
-7.69271e-08 4.78527e-08 -2.0305e-08
1.36977e-07 -1.51521e-08 1.89598e-09
1.34249e-07 -1.78303e-08 -1.9791e-09
-7.7231e-08 4.84898e-08 -1.8172e-08
-8.86941e-08 4.19768e-08 -2.20759e-08
-1.33686e-07 -4.57935e-09 -8.30034e-09
-1.33965e-07 -3.98202e-09 -8.50926e-09
-8.55341e-08 4.28644e-08 -2.24033e-08
9.06211e-08 6.2237e-08 1.65212e-08
1.56496e-08 7.67442e-08 -2.34739e-11
1.63401e-08 7.32882e-08 1.72158e-09
-1.22516e-07 2.2626e-08 -6.11036e-09
-1.24185e-07 2.3044e-08 -7.30066e-09
-1.38022e-08 7.43503e-08 -1.30165e-08
-8.62624e-08 4.48096e-08 -2.47841e-08
-1.32624e-07 -4.34023e-09 -2.27378e-09
-1.33787e-07 -3.85181e-09 -2.11978e-09
5.69539e-08 7.30365e-08 8.8144e-09
5.04794e-08 7.66571e-08 8.50119e-09
1.12405e-07 -2.60271e-08 -1.16397e-08
1.16765e-07 -2.69001e-08 -1.31631e-08
-1.38915e-07 9.49977e-09 -1.36792e-08
-1.39356e-07 1.04567e-08 -1.45268e-08
-3.35425e-09 8.16131e-08 -8.13455e-09
5.77685e-08 7.37806e-08 1.04673e-08
-7.2691e-08 4.88418e-08 2.07048e-08
-7.2891e-08 5.16807e-08 2.28658e-08
1.01885e-07 6.04474e-08 1.22459e-09
9.8297e-08 6.09717e-08 3.97857e-10
9.22333e-09 7.82828e-08 -6.46052e-09
-1.06904e-07 1.24829e-08 -1.43295e-08
-1.06971e-07 1.39043e-08 -1.47839e-08
1.96867e-07 1.92631e-08 7.07551e-09
1.9438e-07 2.02906e-08 8.02148e-09
-3.87621e-08 6.11303e-08 1.74713e-08
-2.96671e-08 6.3272e-08 1.59622e-08
-3.21226e-08 6.3093e-08 1.74885e-08
-9.87407e-08 4.1309e-08 -2.65281e-08
-9.63559e-08 4.18664e-08 -2.51875e-08
6.22312e-08 -4.02643e-08 1.28304e-08
6.63137e-08 -3.95601e-08 1.17925e-08
-9.58824e-08 4.1331e-08 -2.52886e-08
9.08472e-08 5.91309e-08 1.18764e-08
9.16205e-08 6.12541e-08 1.47385e-08
1.19514e-07 5.01363e-08 2.43664e-09
9.49813e-08 6.53449e-08 2.18343e-09
9.21546e-08 6.68892e-08 3.17663e-09
8.95842e-08 6.87844e-08 1.8458e-09
5.25363e-08 8.38081e-08 2.72799e-09
-1.36628e-08 -1.08265e-09 6.85134e-10
-1.2989e-08 2.16269e-09 1.82016e-10
4.91391e-08 8.49712e-08 1.31826e-09
1.79413e-08 7.49585e-08 -6.30067e-09
-3.00152e-08 -5.25798e-08 -9.19314e-10
-4.23138e-08 4.94e-08 5.24656e-09
-3.07205e-08 -5.29849e-08 -1.94013e-09
1.74419e-08 7.45631e-08 -5.45736e-09
3.15331e-09 8.15036e-08 -7.2433e-09
2.70474e-07 -9.23132e-09 1.45969e-08
2.74347e-07 -9.47241e-09 1.70066e-08
2.79095e-07 -1.12386e-08 1.55554e-08
-2.60651e-08 7.17164e-08 -1.43705e-08
-1.31937e-07 1.55057e-08 -1.93544e-08
-1.30805e-07 1.6143e-08 -1.9431e-08
-1.9006e-08 7.29085e-08 -1.4111e-08
-2.58169e-08 7.11716e-08 -1.63068e-08
-3.61289e-08 6.20378e-08 1.80897e-08
1.05739e-08 8.57664e-08 -5.0077e-09
1.62893e-07 3.18247e-08 4.76606e-09
1.65227e-07 3.16222e-08 4.61925e-09
5.99068e-08 -3.69195e-08 -9.52385e-09
6.42883e-08 -3.66121e-08 -9.02305e-09
2.85117e-08 7.39425e-08 -4.1186e-09
2.87308e-09 8.35614e-08 -6.16597e-09
-2.03259e-08 7.71247e-08 -1.17393e-08
-5.25151e-08 7.31391e-08 -5.1991e-09
-4.69631e-08 7.76956e-08 -3.1305e-09
-4.80534e-08 7.76424e-08 -4.71826e-09
6.72085e-08 -3.60816e-08 -1.46072e-08
7.18219e-08 -3.51413e-08 -1.40823e-08
-7.9772e-08 5.24408e-08 2.31541e-08
1.14312e-07 4.78674e-08 -1.79886e-08
1.12881e-07 4.73485e-08 -1.62342e-08
-1.23388e-07 -8.58803e-09 -2.79995e-09
-1.23108e-07 -7.92933e-09 -2.09631e-09
1.27312e-08 7.65967e-08 -6.95237e-09
1.78912e-09 7.58648e-08 -9.23903e-09
-1.36368e-07 1.62662e-08 -1.67715e-08
-1.36525e-07 1.50502e-08 -1.54974e-08
9.44711e-09 7.45784e-08 -8.66754e-09
-3.4951e-08 6.82051e-08 -1.77946e-08
-1.16738e-07 -1.25838e-08 -4.27196e-09
-3.25097e-08 6.9824e-08 -1.87469e-08
-1.34663e-07 -4.80058e-09 -8.2068e-09
-1.35158e-07 -4.36292e-09 -8.2915e-09
-3.44284e-08 6.85413e-08 -1.98048e-08
2.43267e-09 4.25083e-08 -8.70849e-09
-1.31962e-09 3.7492e-08 -6.85342e-09
1.06944e-07 5.39009e-08 1.33133e-08
1.16632e-07 5.3449e-08 2.97169e-09
1.18144e-07 5.24788e-08 3.91631e-09
3.15594e-08 8.38739e-08 -6.64264e-10
-3.6126e-08 6.49679e-08 1.76902e-08
-3.57073e-08 6.43408e-08 1.88903e-08
5.41495e-08 7.35321e-08 9.48277e-09
6.47839e-08 7.02839e-08 1.11247e-08
6.23963e-08 7.16984e-08 9.94124e-09
2.24714e-08 7.37469e-08 -1.90038e-09
2.66345e-08 7.61732e-08 -3.69384e-09
3.86451e-08 7.20081e-08 1.30432e-09
1.32494e-07 4.62308e-08 -4.26343e-08
1.42516e-07 4.29146e-08 2.02445e-08
1.4153e-07 4.23507e-08 1.73267e-08
4.11367e-08 7.04061e-08 -5.40778e-10
4.42805e-08 6.99962e-08 2.22473e-11
7.11774e-08 6.50882e-08 5.32176e-09
2.63412e-07 -7.24128e-09 1.24277e-08
2.61881e-07 -5.64779e-09 1.60026e-08
-8.02146e-08 5.14528e-08 2.24482e-08
4.5449e-08 7.21496e-08 1.74238e-09
-2.0778e-08 4.16659e-08 -1.89854e-09
4.29767e-08 7.38593e-08 -8.53144e-09
3.56695e-08 7.67998e-08 -7.71087e-09
5.8322e-08 7.54853e-08 8.96444e-09
5.69415e-08 7.33246e-08 9.3412e-09
5.25755e-08 7.84367e-08 2.79377e-09
-6.00163e-08 5.93041e-08 -2.51466e-08
-2.91822e-08 7.26615e-08 -2.17031e-08
-5.40897e-08 6.43795e-08 -1.75079e-08
-5.41042e-08 6.24242e-08 -1.78209e-08
2.06376e-07 1.97779e-08 -4.35449e-08
1.97414e-07 2.42095e-08 -4.77512e-08
-8.7035e-08 -3.19527e-08 -7.28274e-09
-8.3375e-08 -3.28695e-08 -7.6908e-09
7.337e-09 -5.60762e-08 5.8557e-09
7.31936e-09 -5.64026e-08 6.75521e-09
-8.45592e-08 4.07531e-08 1.35683e-08
-8.48885e-08 4.07754e-08 1.1091e-08
1.62101e-07 3.30806e-08 4.09469e-09
1.60162e-07 3.31988e-08 4.21137e-09
-2.92956e-08 7.35943e-08 -2.05735e-08
-1.04637e-07 3.51882e-08 1.97739e-08
1.37456e-08 8.86333e-08 2.11362e-09
2.18238e-08 8.95384e-08 1.42016e-09
-1.054e-07 -1.76852e-08 -5.16784e-09
-1.06309e-07 -1.69446e-08 -5.09121e-09
-5.85903e-08 6.00353e-08 -2.3477e-08
1.33041e-07 4.6219e-08 -4.3394e-08
1.6725e-08 8.09357e-08 -4.0658e-09
2.65147e-08 8.04664e-08 -3.70898e-09
1.92998e-07 2.10857e-08 1.48825e-08
1.916e-07 2.18543e-08 1.40761e-08
6.09833e-08 7.01109e-08 4.33981e-09
6.62268e-08 6.78218e-08 3.71401e-09
-3.65207e-08 -5.659e-08 -1.75403e-09
-3.84738e-08 -5.55066e-08 -2.81746e-09
1.96975e-07 1.81726e-08 -1.80775e-08
1.99775e-07 1.64899e-08 -1.63551e-08
-2.35702e-08 6.58109e-08 1.50108e-08
-2.63498e-08 6.29042e-08 1.57195e-08
-5.99819e-08 5.66987e-08 -2.35616e-08
-7.12794e-08 -3.43551e-08 5.56149e-10
1.2878e-07 4.58035e-08 1.57688e-09
1.07404e-07 6.16249e-08 2.20189e-08
-1.27056e-07 2.0313e-08 1.14847e-08
-1.28056e-07 1.97575e-08 1.13599e-08
-6.22375e-08 -4.96333e-09 1.27649e-09
-5.49533e-08 6.36998e-08 -1.9159e-08
-6.10153e-08 6.26999e-08 -2.03563e-08
4.95341e-09 7.29953e-08 6.78422e-09
5.06185e-09 6.95674e-08 8.05795e-09
1.07735e-07 6.28959e-08 2.44395e-08
1.89843e-08 -6.45047e-08 6.25488e-09
2.42279e-08 -6.45244e-08 6.26024e-09
1.80895e-08 8.19642e-08 3.50956e-09
-7.08121e-08 -3.42061e-08 4.43349e-10
-7.21281e-08 -3.34193e-08 6.58696e-10
1.39813e-07 4.11527e-08 1.41974e-09
1.4088e-07 4.04802e-08 5.47424e-10
5.30655e-08 6.33721e-08 -5.61039e-09
5.40249e-08 6.40313e-08 -7.13656e-09
2.59761e-08 6.81838e-08 1.99884e-09
2.99185e-08 6.65298e-08 1.49781e-09
1.25306e-08 7.34485e-08 4.96032e-09
1.73643e-09 3.82092e-08 6.15471e-09
8.27732e-09 7.12178e-08 6.65311e-09
1.0384e-07 5.50569e-08 1.08208e-08
1.02446e-07 5.43783e-08 8.45996e-09
1.11424e-07 5.11735e-08 8.25088e-09
1.06711e-07 5.28506e-08 9.71349e-09
1.44852e-07 5.17442e-08 3.65628e-08
1.41763e-07 5.41857e-08 3.67057e-08
-9.68481e-08 -2.76421e-08 -2.00539e-09
-3.86593e-08 -8.01187e-09 -2.32879e-09
-9.60959e-08 -2.80526e-08 -2.72275e-09
1.92995e-07 2.12004e-08 1.27322e-08
1.96724e-07 1.96352e-08 9.60333e-09
1.14721e-07 4.68729e-08 -1.26797e-08
1.21561e-07 4.42663e-08 -1.09885e-08
-8.43337e-08 -3.66962e-08 -5.55165e-09
-8.00039e-08 -3.84584e-08 -6.00431e-09
-8.33499e-08 -3.78678e-08 -5.63541e-09
3.07018e-08 -4.87482e-08 1.24194e-08
3.09036e-08 -4.82221e-08 1.13216e-08
3.25262e-08 -4.83606e-08 1.23419e-08
-1.14725e-08 7.27396e-08 1.02743e-08
-1.3253e-08 -6.17059e-08 1.73155e-09
-7.71406e-09 -6.39785e-08 2.96844e-09
-8.8361e-09 -6.38978e-08 2.43567e-09
-7.8902e-08 -2.68459e-08 -4.92431e-09
-8.18486e-08 -2.78573e-08 -6.03133e-09
-8.14235e-08 -2.78088e-08 -5.39712e-09
-8.73495e-08 4.50943e-08 -2.61527e-08
1.3041e-07 4.4316e-08 -5.4816e-10
-8.68739e-08 4.38542e-08 -2.6834e-08
-1.09276e-07 3.30702e-08 1.8841e-08
-9.34238e-11 7.4135e-08 -1.03777e-08
1.35207e-07 4.18282e-08 -4.27098e-08
1.21412e-07 4.52204e-08 -4.31266e-08
5.79046e-08 -3.84906e-08 -1.14563e-08
5.58782e-08 -3.82901e-08 -1.08165e-08
2.47196e-07 5.86555e-09 3.40718e-08
2.41572e-07 8.20351e-09 3.59239e-08
4.25765e-09 7.71412e-08 -8.52784e-09
4.25864e-09 7.29746e-08 -9.4316e-09
8.31853e-08 5.5567e-08 -6.92298e-09
1.07953e-07 4.84156e-08 -6.16047e-09
8.36433e-08 5.61025e-08 -8.51949e-09
8.23625e-08 5.53472e-08 -6.30673e-09
2.46734e-08 -5.16137e-08 -5.75044e-09
2.075e-08 -5.07163e-08 -5.3309e-09
1.44962e-07 3.92506e-08 4.87515e-09
1.46593e-07 3.92761e-08 6.28106e-09
1.47932e-07 3.79792e-08 5.02814e-09
1.6113e-08 7.51867e-08 -4.66034e-09
4.64574e-09 7.61492e-08 -7.57648e-09
-2.37043e-09 2.1095e-08 3.3469e-09
1.00822e-07 5.03668e-08 -6.12785e-09
-3.39399e-08 -1.44319e-08 -1.80282e-09
8.33303e-09 7.51099e-08 -5.69111e-09
2.08245e-08 -4.3686e-08 -7.95595e-09
2.39731e-08 -4.25814e-08 -8.64626e-09
2.42414e-08 -4.16801e-08 -7.90172e-09
1.75942e-07 2.58956e-08 3.553e-10
1.78152e-07 2.52585e-08 2.28129e-09
1.79302e-07 2.45804e-08 1.32322e-09
4.67605e-08 -4.69824e-08 1.36194e-08
4.23875e-08 -4.72853e-08 1.36815e-08
4.12734e-08 -4.77873e-08 1.3027e-08
1.24247e-07 4.69342e-08 7.45364e-09
1.25559e-07 4.62054e-08 8.26828e-09
-1.00879e-07 1.53309e-08 -1.42031e-08
-1.0383e-07 1.55729e-08 -1.51492e-08
1.29144e-07 4.47349e-08 6.67505e-09
1.53549e-07 -2.57459e-08 2.03105e-08
-1.29437e-07 7.96138e-09 -1.52103e-08
-1.30251e-07 6.63972e-09 -1.42985e-08
1.42823e-07 -2.36164e-08 1.6474e-08
1.44738e-07 -2.45578e-08 1.80496e-08
1.12365e-07 5.48269e-08 2.00145e-08
1.16292e-07 5.1828e-08 1.90236e-08
2.6016e-08 6.41123e-08 1.57733e-08
1.21831e-07 5.14234e-08 1.99048e-08
-5.79806e-08 -4.22008e-08 -5.29406e-09
2.58502e-08 6.57073e-08 1.63716e-08
-5.55617e-08 -4.42436e-08 -5.4992e-09
-5.06341e-08 -4.39337e-08 -4.98861e-09
2.06313e-07 1.56025e-08 6.99857e-09
-7.3852e-08 5.46167e-08 2.30961e-08
-7.42233e-08 5.56829e-08 2.28811e-08
2.04708e-07 1.62901e-08 6.34331e-09