# vtk DataFile Version 2.0
S, Created by Mohamad Ibrahim Cheikh
ASCII
DATASET UNSTRUCTURED_GRID
POINTS 17222 double
-215.75 10.4959 -43.9879
-198.87 30.7972 -44.1982
-50.199 -83.0616 23.1572
-51.7323 -83.5094 21.0365
-118.462 -36.1333 68.7042
-115.674 -37.9623 68.2986
-170.118 -58.3778 -28.1582
-199.842 27.9411 -45.5392
-201.438 52.6655 -1.57294
-200.964 52.8919 1.38472
-21.7361 85.2269 -20.5557
-18.8444 85.6354 -19.1601
-139.291 45.1463 -57.7097
4.41392 17.9485 -86.1363
-141.943 43.6099 -58.0988
-219.384 -8.92945 42.0923
-217.673 -11.4751 42.5604
-225.749 12.038 -36.8744
-227.025 9.69022 -36.6059
-133.122 -27.952 -69.2318
1.88944 -5.02528 87.8539
-133.337 -30.4672 -68.1108
-160.984 -13.5399 66.2404
0.252015 -0.367519 87.9992
-159.378 -10.985 67.1821
-145.387 -33.1808 -63.6802
-144.479 -36.2075 -62.2686
-155.56 45.5697 52.0067
-153.105 46.7354 51.8641
-7.91438 11.7031 -87.1744
0.496467 9.52748 87.4826
-219.2 9.20196 42.1509
-218.986 6.31337 42.8137
-220.563 41.2807 -9.16007
-158.397 19.9149 65.3885
-222.238 39.9435 -10.085
205.335 -37.5151 -34.2733
208.262 -36.2499 -33.4625
-167.209 61.9006 22.12
-167.022 60.7387 25.2869
-158.375 33.8548 59.3884
-155.93 35.3735 59.2951
-185.097 -10.68 58.6118
-15.8479 11.9251 -87.0117
-182.749 -12.5717 59.1363
-212.81 46.8967 0.18676
-210.6 48.0816 1.4393
221.207 -31.7632 -27.2816
-220.559 41.893 -5.7632
-218.162 43.4754 -5.18038
-216.815 44.4989 -2.92208
238.068 -2.94931 -28.2207
237.086 -5.38197 -28.8656
-11.5913 -7.06721 87.6219
222.819 -29.6169 -28.0778
-185.29 -31.0725 -50.7463
-212.052 9.50267 -46.352
-181.85 -32.394 -51.4387
-176.885 32.4454 -53.4852
-222.035 -37.9803 16.3008
-219.138 -40.0802 16.0713
-217.357 -40.1545 18.6422
-143.423 70.4519 16.1902
-143.983 69.6763 18.7379
-224.351 20.3538 -34.1674
-222.654 23.0657 -33.8006
-215.852 44.3563 -8.49823
-213.133 45.9582 -8.38931
-184.562 28.6699 -52.4564
-182.358 30.1639 -52.5623
-147.32 68.5065 19.8421
-150.337 68.0653 18.5478
-193.047 -11.7522 55.1658
-190.455 -10.2923 56.5432
-131.804 -61.6494 -42.62
-132.44 -63.2795 -39.9029
-179.417 30.3248 -53.6964
-179.536 27.6735 -55.0625
-162.385 24.7411 62.4782
-165.136 23.5025 62.0723
-186.993 2.00438 58.8135
3.87692 3.65442 87.9136
-188.672 -0.102844 58.1877
-123.359 -65.9584 -39.1206
-120.362 -66.3642 -39.5745
-175.528 -32.4755 54.0118
-189.142 54.7582 -19.122
12.9642 1.96443 -87.861
-176.138 -29.668 55.3664
-200.457 8.71075 -52.426
-202.563 6.30321 -51.7757
-174.454 -29.4144 -56.1493
-171.739 -28.2241 -57.7615
-175.192 47.4883 41.6076
-176.153 45.3046 43.5026
-159.782 11.38 -66.9986
-159.603 8.33734 -67.4967
-118.895 -67.9476 -37.3689
-229.719 35.2602 -6.32246
-242.167 -22.1597 8.54404
-243.13 -21.8145 5.56807
-236.855 -0.361173 -29.5885
-236.052 -3.81601 -30.1257
-139.756 68.562 -25.5338
-141.214 69.0349 -23.1678
-140.76 63.1172 36.5303
-141.267 64.661 33.4617
-195.426 45.1884 -32.0345
-192.681 46.4929 -32.2033
-143.182 61.805 37.6058
-211.946 33.1326 -33.8603
-210.004 -34.6259 33.8476
-211.801 -35.8902 31.0436
-129.813 73.0722 -18.4753
-129.294 72.4173 -21.2853
-203.738 35.3848 -37.5488
-201.511 37.4017 -37.0623
-159.456 65.2387 19.364
-161.557 65.1114 17.5775
-209.546 45.6935 -16.74
-211.201 43.9646 -18.7085
-210.078 35.2206 -33.171
-207.138 36.0296 -34.5378
82.5335 -33.358 -76.1398
-170.5 -43.4372 47.9388
-173.709 -42.8676 47.0326
-218.181 37.1369 23.1684
-220.859 36.3305 21.2625
-221.995 28.525 29.9457
-220.694 30.9718 28.6651
-173.469 59.4711 -22.8709
-237.919 14.6526 -24.4763
-171.559 60.8655 -20.8799
-168.372 61.868 -21.1079
-189.565 36.3872 -44.9495
-195.968 33.2672 -43.9949
-192.499 34.1506 -45.1772
-202.082 42.6172 -30.4638
-216.568 31.8874 -31.3844
-205.184 41.2071 -29.8594
-206.897 39.021 -31.3137
-241.045 11.1402 -22.5024
-143.617 -40.3304 59.9351
-126.254 -70.1903 29.4237
195.918 -0.361495 -55.1769
-202.915 -12.5524 50.4523
-200.81 -10.8581 51.857
-203.503 21.0525 47.2285
-205.836 18.9858 46.8653
-123.304 -71.1371 28.6721
-159.262 33.5694 -59.2598
-157.382 30.2256 -61.6273
-160.318 30.7061 -60.452
15.0392 -16.5304 86.2731
11.9831 -15.5689 86.5103
-183.578 38.1766 -46.4816
-180.183 39.1124 -47.3222
-241.502 -14.0881 20.1244
-240.675 -17.0782 18.9903
-226.97 12.362 35.8348
-225.065 10.9455 37.7171
-187.089 -35.7313 -46.7112
22.9149 9.29792 87.1393
-184.473 -36.6471 -47.2719
-197.295 -25.5516 48.223
-200.035 -24.7744 47.2366
-113.626 15.6377 -76.9335
-114.554 20.346 -75.6533
-204.668 28.8159 -42.2513
-205.333 26.4467 -43.3904
-115.747 17.6285 -76.1117
-237.181 21.4111 19.9571
-226.774 34.0305 -17.0219
-224.588 36.1158 -16.2564
-211.848 37.8935 -28.5207
-237.308 18.9663 22.1267
-235.119 23.9379 20.0726
-228.279 -4.42905 -36.6658
-168.247 -37.3729 -53.6807
-169.894 -34.9157 -54.6908
-171.97 49.3917 41.0334
-168.921 49.5159 42.4113
-233.013 -7.49405 -32.2564
-154.191 32.127 -61.653
-229.082 -6.82109 -35.6721
-147.523 -68.7109 -18.9305
-241.375 13.4773 -20.7206
-230.812 -8.33459 -33.9433
47.0022 -60.6093 -61.6444
-223.737 7.01088 39.5755
-223.692 4.02374 40.0202
47.6679 -82.8677 -24.4694
50.3614 -82.4866 -25.0888
-107.214 -79.5937 -1.23202
-109.529 -79.1695 -2.72804
50.3682 -60.4935 -61.4323
-99.0434 71.1332 -38.5107
-97.2718 70.0754 -40.9271
-93.9375 70.9748 -40.3263
-235.048 19.2408 24.6941
-215.86 28.708 -34.8591
-205.033 8.3368 50.276
-235.989 16.3418 25.6651
-30.6802 -68.2828 -54.463
184.026 51.5495 30.667
-32.2667 -66.0793 -57.0092
-215.753 24.9657 -37.705
6.44697 -9.92285 -87.4097
-232.996 21.1941 25.4636
9.61814 -9.98973 -87.3664
41.7214 2.93555 -86.731
39.1224 4.70818 -86.8012
54.5678 -61.3138 60.1669
1.34015 -11.9784 -87.1797
51.5196 -60.8464 60.9652
90.0419 50.2244 65.03
91.1972 48.0465 66.4627
88.618 -50.9457 64.7076
85.5153 -52.1697 64.2418
-152.334 -68.5399 -14.3255
-149.497 -69.3992 -13.8384
215.419 42.4518 -16.1382
216.33 42.9006 -13.1894
-147.558 -69.422 -16.0888
-194.147 -20.4382 -52.0722
-196.372 -21.4069 -50.6417
-199.368 25.3327 47.2857
123.7 72.1507 25.7851
125.964 71.0671 27.4023
0.228388 87.2248 11.6543
-1.76587 86.8856 13.9465
-182.122 -53.6612 28.3487
-178.559 -54.8785 28.7898
-197.555 27.0338 47.2755
-226.041 7.6409 37.8163
-228.065 5.94902 36.6136
-228.078 3.006 36.9622
-212.577 21.0162 -42.0691
-205.324 38.0148 -33.7261
-65.8012 78.0217 33.5636
-192.385 -22.3053 -52.1065
-193.492 -24.5205 -50.5871
-67.2375 76.8817 35.773
-209.481 42.9411 22.9686
-211.402 42.8 20.9916
-73.7385 84.0355 4.04214
-72.8904 83.9383 6.91966
-70.3275 76.1129 36.6782
182.041 36.6881 -48.3815
11.8295 -85.6259 -19.8762
8.51661 -85.7678 -19.468
-111.461 -74.6137 -25.6083
-131.098 58.2988 -47.34
-219.796 34.3624 -25.4671
-218.072 36.4428 -24.366
-215.533 4.544 45.1213
-212.947 5.44441 46.5035
-203.428 -10.7673 -50.6117
-8.32493 -7.28049 87.6499
-124.951 75.1654 -13.5164
-127.846 74.4279 -14.2624
-115.029 -73.9521 -25.5955
-115.952 -72.7795 -28.3036
-230.673 -21.2772 -27.8701
-228.637 -23.1657 -28.4131
211.649 -37.4559 -29.2706
209.036 -38.0887 -30.7171
-211.229 -16.483 44.83
213.94 -35.161 -30.067
-195.712 -48.0092 -27.3795
-191.57 -34.4379 -45.4419
-194.679 -33.7077 -44.3588
-197.042 -48.8207 -24.6398
72.4205 74.1749 -39.9995
75.1929 73.0818 -41.3622
-200.239 -47.5885 -23.8831
-175.728 -57.9501 -24.5988
31.3384 -85.828 -16.0411
28.9682 -85.6849 -17.3022
-175.348 -56.7736 -27.5024
-134.31 40.9193 -62.1374
-107.826 3.16138 79.4391
-110.659 1.59036 79.008
-118.792 -77.5322 2.2552
-118.185 -77.6719 -0.999581
-212.499 -12.3353 -45.4246
-172.465 -56.6835 -29.8223
16.8439 -82.1563 30.9774
15.0394 -83.0445 28.6341
-136.311 21.9984 -70.606
-138.19 19.4795 -70.8983
93.972 68.8053 -43.9168
95.5014 70.2949 -41.061
-35.3077 -85.5278 -16.6245
-38.2251 -85.1957 -17.5156
-233.474 -3.9337 -32.4778
-133.531 23.3201 -70.8319
-140.892 -48.3791 54.5266
-137.74 -48.0426 55.7952
-214.561 44.5214 11.2068
-215.975 43.0061 13.5535
-223.883 0.378926 -40.09
8.62166 -61.8752 -62.5008
5.84752 -61.0626 -63.3339
-62.2551 84.2554 -13.0582
-65.4761 83.8013 -14.0164
-164.657 -29.4327 59.6522
-163.382 -24.6697 62.1876
-165.107 -26.7306 60.7615
-50.5772 -56.2376 -65.3311
-49.0991 -53.8914 -67.4134
200.983 46.0184 26.0927
200.37 47.7643 23.393
-45.8389 -53.923 -67.6688
-152.455 40.5859 -57.0193
-149.478 41.6195 -57.2386
-192.196 56.1993 7.94748
-223.187 40.3376 -4.28179
-225.254 38.7385 -5.59209
-227.85 36.9419 -4.82067
-239.688 19.496 -18.1721
28.8594 10.2213 86.8191
25.3657 11.4073 86.805
-241.64 17.8783 -16.6033
-213.067 2.76172 -46.6724
206.609 -15.592 47.6936
-33.6192 -12.3817 86.3268
203.721 -16.5721 48.8696
-215.579 3.30354 -45.202
-229.452 -1.63533 -35.9938
30.1837 86.8064 -9.85391
32.2068 86.4249 -12.1552
35.2081 86.4156 -11.1615
-215.965 -17.4984 -41.5639
-37.1522 -80.1149 -34.009
-36.2761 -79.0241 -36.5798
-215.906 -14.7062 -42.668
-213.551 -18.784 -42.5186
-152.992 -29.029 63.5267
-240.007 2.59449 -26.1701
-120.427 77.0638 -5.43996
-119.243 77.4413 -2.45604
189.224 46.2932 -34.8891
189.094 48.2765 -32.1821
-214.283 8.02734 -45.364
-239.363 -0.497575 -27.0028
-230.44 -12.0176 -33.1391
-243.257 -21.3906 -6.46096
-246.11 -17.8642 -3.04163
-245.243 -18.4881 -6.22376
133.73 51.842 -53.5435
133.312 53.7571 -51.7525
-91.8343 -46.4515 67.4814
-106.313 53.7384 58.9273
-105.019 51.982 60.7585
34.9477 -76.4361 41.8568
32.899 -75.5006 43.7166
-217.625 0.87533 -44.1005
-217.416 -4.28705 -44.0271
-61.7953 -82.9452 -19.9141
-58.8571 -83.4999 -18.6454
-216.411 -1.4122 -44.812
-202.886 -24.2894 -45.9831
76.8769 -76.7724 -33.5622
-196.673 -24.0055 -49.3162
30.4522 -86.4935 -12.2205
27.7946 -86.7044 -11.4787
-198.873 -25.4971 -47.4524
-8.02602 17.9481 86.1045
-5.63005 16.0093 86.5091
-149.228 49.2967 -50.867
-198.396 53.8013 -5.51792
-195.58 54.9076 -6.78335
-235.451 11.1124 -28.8668
-150.486 -27.5057 64.922
-147.582 -28.7522 65.1976
-150.023 22.6179 -66.9096
-146.147 27.4259 -66.1578
-148.962 25.5079 -66.1564
-105.907 6.43168 79.5577
-107.073 8.8681 79.1311
-167.454 12.6034 -64.4368
-8.66816 61.641 62.7311
-106.308 65.3981 -45.6449
-109.997 64.4298 -45.9506
-199.855 14.3269 -51.4646
-204.121 16.2511 -48.7729
[...]
POINT_DATA 17222
VECTORS F double
3.32565e-08 7.0446e-08 -3.16123e-09
6.98549e-08 6.05491e-08 3.70891e-09
-1.28773e-07 9.24811e-09 -1.00438e-09
-1.2844e-07 9.29e-09 -1.7913e-09
-5.31253e-08 5.57689e-08 1.81156e-08
-5.37553e-08 5.35696e-08 1.86292e-08
-7.8458e-08 4.03386e-08 -2.55978e-08
6.34305e-08 6.16217e-08 3.72948e-09
1.07915e-07 5.0572e-08 1.26486e-09
1.08132e-07 5.0254e-08 1.77941e-09
2.12232e-07 7.81007e-09 4.9059e-09
2.15815e-07 6.66045e-09 3.78188e-09
9.79706e-08 5.30618e-08 1.25595e-08
1.39732e-08 5.66988e-08 1.19022e-08
9.63708e-08 5.38289e-08 1.15791e-08
-1.09637e-08 6.77607e-08 7.37882e-09
-1.42802e-08 6.50054e-08 8.58508e-09
3.5696e-08 7.27049e-08 -3.02015e-09
3.03046e-08 7.44978e-08 -3.28944e-09
-2.39088e-08 7.66511e-08 -2.53191e-08
-3.3967e-08 1.64347e-08 1.02951e-09
-3.04269e-08 7.57647e-08 -2.65983e-08
-1.19489e-08 6.24946e-08 9.21895e-09
-2.70543e-08 1.94639e-08 9.07646e-11
-5.91577e-09 6.06822e-08 8.20398e-09
-3.21064e-08 7.05753e-08 -2.77993e-08
-3.76894e-08 6.74598e-08 -2.85196e-08
9.09529e-08 4.72484e-08 -8.0926e-09
9.11914e-08 4.82208e-08 -1.04939e-08
7.19485e-09 6.54899e-08 8.71203e-09
-1.22148e-08 2.15305e-08 -2.33635e-09
2.57172e-08 6.81959e-08 1.48591e-09
1.94375e-08 6.73362e-08 2.24262e-09
9.06058e-08 5.97116e-08 1.99239e-09
4.53361e-08 5.87867e-08 -4.45862e-09
8.83777e-08 6.08895e-08 2.72633e-09
-5.77399e-08 -3.93504e-08 7.20569e-10
-5.68773e-08 -3.99638e-08 -4.63494e-11
1.20829e-07 4.11028e-08 -3.19785e-09
1.18529e-07 4.09547e-08 -2.522e-09
6.99892e-08 5.45481e-08 -8.24457e-09
7.271e-08 5.18056e-08 -7.49582e-09
-7.4127e-09 6.09326e-08 8.23694e-09
1.153e-08 7.00827e-08 9.34778e-09
-8.09671e-09 5.92266e-08 9.52754e-09
9.92772e-08 5.51484e-08 1.82373e-09
1.01116e-07 5.41967e-08 9.09953e-10
-5.2683e-08 -4.48359e-08 -9.72354e-11
9.17777e-08 5.94996e-08 2.48722e-09
9.38102e-08 5.78771e-08 2.04263e-09
9.63124e-08 5.75533e-08 1.52812e-09
-8.00547e-09 -5.80595e-08 -2.20056e-09
-1.25893e-08 -5.66075e-08 -2.10521e-09
-3.63674e-08 2.71101e-08 1.59761e-09
-4.97933e-08 -4.64328e-08 5.99877e-10
-3.48466e-08 6.28762e-08 -2.29223e-08
3.15612e-08 6.92398e-08 -3.48247e-09
-3.45352e-08 6.22347e-08 -2.42453e-08
7.19408e-08 5.87001e-08 6.48011e-09
-6.58371e-08 4.94316e-08 5.38149e-09
-6.6755e-08 4.68205e-08 5.32577e-09
-6.69432e-08 4.75808e-08 6.92804e-09
1.38323e-07 3.48963e-08 -1.83138e-09
1.35756e-07 3.47621e-08 -1.5478e-09
5.07378e-08 7.07901e-08 1.38167e-09
5.64376e-08 6.82454e-08 1.05479e-09
9.55496e-08 5.74106e-08 2.5232e-09
9.74369e-08 5.57945e-08 2.5867e-09
6.55482e-08 6.08086e-08 4.99932e-09
6.76035e-08 5.94458e-08 5.39908e-09
1.33866e-07 3.595e-08 -2.43629e-09
1.32536e-07 3.62326e-08 -1.4417e-09
-9.58289e-09 6.10928e-08 8.90927e-09
-8.09429e-09 6.14864e-08 7.8541e-09
-8.49033e-08 4.52254e-08 -3.32722e-08
-8.81235e-08 4.38848e-08 -3.37848e-08
6.87398e-08 6.09012e-08 6.2736e-09
6.2609e-08 6.07382e-08 5.53287e-09
5.32035e-08 5.9037e-08 -6.44875e-09
5.24143e-08 5.82998e-08 -5.00211e-09
1.35072e-08 6.14105e-08 3.16492e-09
-2.14251e-08 1.72415e-08 -6.01039e-10
9.50358e-09 6.31036e-08 3.88426e-09
-9.36133e-08 4.08349e-08 -3.27084e-08
-9.306e-08 4.05807e-08 -3.33997e-08
-4.23032e-08 5.23269e-08 1.46311e-08
1.09393e-07 4.73968e-08 3.25224e-09
-1.78165e-08 3.86041e-08 5.41268e-10
-3.61715e-08 5.43943e-08 1.50586e-08
3.28732e-08 6.70281e-08 -4.25197e-09
2.83878e-08 6.94904e-08 -5.13759e-09
-2.87496e-08 6.42285e-08 -2.27108e-08
-2.78988e-08 6.64391e-08 -2.23087e-08
9.51729e-08 4.65844e-08 -4.1065e-09
8.94802e-08 4.73436e-08 -4.94463e-09
3.91243e-08 7.20568e-08 8.15637e-10
3.32337e-08 7.11944e-08 -8.27038e-10
-9.72844e-08 3.81015e-08 -3.13844e-08
8.14119e-08 6.52401e-08 1.6921e-09
-4.96612e-08 6.69665e-08 1.35394e-09
-4.93234e-08 6.7264e-08 -1.53862e-10
6.47724e-09 7.82599e-08 -7.30352e-09
-1.08672e-09 7.59169e-08 -8.57402e-09
1.36618e-07 3.63784e-08 6.13276e-09
1.3684e-07 3.65923e-08 6.92041e-09
1.23155e-07 3.71362e-08 -6.06521e-09
1.26805e-07 3.75912e-08 -7.09885e-09
9.41927e-08 5.31014e-08 4.55448e-09
9.5262e-08 5.25819e-08 6.13133e-09
1.21026e-07 3.84706e-08 -6.81032e-09
7.36057e-08 6.19173e-08 4.17942e-09
-5.38515e-08 5.21922e-08 1.24863e-08
-5.58903e-08 5.13535e-08 1.26854e-08
1.45708e-07 3.31108e-08 5.61462e-09
1.45497e-07 3.33039e-08 5.1034e-09
7.76877e-08 5.93353e-08 4.3074e-09
8.10075e-08 5.69939e-08 3.59196e-09
1.27171e-07 3.8707e-08 -2.19605e-09
1.26462e-07 3.89855e-08 -2.1069e-09
9.69178e-08 5.56028e-08 3.24216e-09
9.34502e-08 5.6807e-08 4.33572e-09
7.78137e-08 5.97223e-08 3.07755e-09
7.90462e-08 5.97533e-08 4.29316e-09
-6.0248e-08 -1.33242e-08 -2.15804e-09
-5.8746e-08 4.60839e-08 1.61763e-08
-5.90844e-08 4.54025e-08 1.4665e-08
8.09603e-08 5.9419e-08 -1.89987e-09
7.95159e-08 5.98772e-08 -1.18843e-09
6.33447e-08 6.37054e-08 -3.19086e-09
6.88065e-08 6.19026e-08 -2.02697e-09
1.17142e-07 4.39935e-08 5.61837e-09
3.99579e-08 7.7936e-08 -8.96835e-10
1.2026e-07 4.29576e-08 4.24759e-09
1.21292e-07 4.21629e-08 5.12772e-09
7.75625e-08 5.70452e-08 6.13143e-09
7.27994e-08 5.88436e-08 4.79426e-09
7.41722e-08 5.99178e-08 6.5998e-09
8.9784e-08 5.59633e-08 5.37194e-09
7.12748e-08 6.2502e-08 3.28835e-09
8.84432e-08 5.65335e-08 3.61087e-09
8.43038e-08 5.83018e-08 4.45611e-09
3.15179e-08 7.99435e-08 -1.75775e-09
-5.38169e-08 5.13226e-08 1.87469e-08
-1.03519e-07 2.6597e-08 9.06487e-09
-5.61905e-09 -4.42544e-08 -2.15277e-09
-1.2276e-08 6.08091e-08 9.08441e-09
-1.10237e-08 6.17861e-08 7.71078e-09
4.70319e-08 6.04338e-08 -2.12767e-09
4.41288e-08 6.20948e-08 -1.42648e-09
-1.03473e-07 2.52558e-08 8.18147e-09
7.58602e-08 6.01609e-08 9.11926e-09
7.10504e-08 6.39862e-08 9.16796e-09
6.96824e-08 6.15028e-08 8.61513e-09
-4.81547e-08 3.14492e-09 1.63032e-09
-4.7818e-08 5.39755e-09 1.7823e-09
8.13108e-08 5.54197e-08 6.20107e-09
8.27864e-08 5.6152e-08 7.81822e-09
-3.01458e-08 7.2398e-08 6.39129e-09
-3.69207e-08 6.99479e-08 5.61745e-09
3.08364e-08 6.95825e-08 -9.17991e-11
2.92883e-08 6.82841e-08 1.58108e-09
-4.3885e-08 5.97043e-08 -2.41507e-08
-1.21064e-08 3.07116e-10 3.57028e-10
-4.30906e-08 5.96726e-08 -2.56731e-08
-3.32112e-08 5.84631e-08 1.4342e-08
-3.37439e-08 5.83521e-08 1.31093e-08
5.2074e-08 7.60381e-08 6.03955e-09
5.95203e-08 7.35179e-08 8.73759e-09
6.65001e-08 6.23931e-08 3.1143e-09
6.09131e-08 6.30722e-08 3.15176e-09
5.20885e-08 7.61024e-08 7.92813e-09
5.3196e-08 7.41645e-08 -2.16613e-09
7.80189e-08 6.53811e-08 3.45596e-09
8.12148e-08 6.30241e-08 2.64783e-09
8.24402e-08 5.96439e-08 4.27366e-09
4.64962e-08 7.36669e-08 -2.09214e-09
5.79764e-08 7.14307e-08 -2.0429e-09
1.08138e-09 7.37045e-08 -9.72752e-09
-4.08515e-08 5.97933e-08 -2.59528e-08
-3.79616e-08 6.27938e-08 -2.56511e-08
9.66671e-08 4.52866e-08 -4.91097e-09
9.79673e-08 4.61591e-08 -6.11971e-09
-8.05679e-09 7.43471e-08 -1.01475e-08
7.25225e-08 6.32324e-08 1.07442e-08
-5.11507e-09 7.43699e-08 -1.01992e-08
-9.62546e-08 3.1624e-08 -2.29488e-08
3.74214e-08 8.07465e-08 -8.50482e-10
-8.02773e-09 7.41828e-08 -1.15321e-08
-9.57537e-08 -1.36376e-10 -8.80454e-09
2.13197e-08 6.89971e-08 2.53349e-09
1.44116e-08 6.83207e-08 2.99303e-09
-1.19648e-07 -5.54338e-09 -9.76315e-09
-1.19138e-07 -6.01485e-09 -9.5035e-09
-1.17707e-07 1.95988e-08 -1.20768e-08
-1.17056e-07 2.03176e-08 -1.42401e-08
-9.52812e-08 -7.05232e-10 -8.8699e-09
1.49714e-07 3.29674e-08 1.37534e-08
1.50561e-07 3.33606e-08 1.33096e-08
1.51833e-07 3.28777e-08 1.45634e-08
4.72517e-08 7.28863e-08 -1.72588e-09
6.5201e-08 6.46995e-08 3.85193e-09
2.39947e-08 6.45906e-08 1.26994e-09
4.00042e-08 7.42562e-08 -2.24677e-09
-1.08524e-07 2.62662e-08 -2.54465e-08
6.38027e-08 -3.64475e-08 1.43916e-08
-1.04967e-07 2.89045e-08 -2.62295e-08
5.89692e-08 6.62773e-08 2.57271e-09
-3.45874e-08 3.94197e-08 -4.78732e-09
5.06711e-08 7.11419e-08 -2.44831e-09
-3.4333e-08 3.67953e-08 -4.67005e-09
-1.90405e-08 1.23732e-08 -7.026e-10
-1.70442e-08 1.59753e-08 -7.39878e-11
-9.61515e-08 -1.54574e-08 -5.07568e-09
-3.64087e-08 4.29815e-08 -5.97414e-09
-9.65004e-08 -1.51023e-08 -5.08874e-09
6.62063e-08 -3.95878e-08 1.93514e-08
6.17437e-08 -4.18501e-08 1.98813e-08
-7.98123e-08 -2.46028e-08 -5.98819e-09
-8.06401e-08 -2.35747e-08 -6.00244e-09
-9.70302e-08 3.06889e-08 -2.05073e-08
-9.66535e-08 2.94782e-08 -1.99962e-08
5.89622e-08 -3.78869e-08 -3.30325e-09
5.9719e-08 -3.7819e-08 -3.092e-09
-9.80551e-08 3.06671e-08 -2.22234e-08
-1.92367e-08 6.89907e-08 -1.82976e-08
-1.93067e-08 6.65048e-08 -1.89467e-08
5.5504e-08 5.88426e-08 -2.87313e-09
1.06633e-07 -2.84109e-08 1.68682e-08
1.0475e-07 -2.99658e-08 1.87629e-08
2.24729e-07 9.82951e-10 -7.89574e-09
2.20079e-07 2.28157e-09 -1.08022e-08
-7.7245e-08 3.75733e-08 1.03665e-08
-7.68755e-08 3.64893e-08 1.11808e-08
5.80781e-08 5.75264e-08 -3.18204e-09
2.15099e-08 6.98956e-08 1.61865e-09
1.87364e-08 7.08816e-08 2.77184e-09
1.16082e-08 7.02608e-08 3.05556e-09
5.29891e-08 6.7001e-08 6.89705e-10
8.27767e-08 5.75778e-08 3.20144e-09
1.68695e-07 2.29524e-08 -1.2864e-08
-2.05651e-08 6.71012e-08 -1.94281e-08
-2.51448e-08 6.74455e-08 -2.09171e-08
1.6378e-07 2.41954e-08 -1.43113e-08
9.05158e-08 5.47599e-08 -1.30656e-09
8.99545e-08 5.50968e-08 -1.42613e-09
1.8016e-07 1.94007e-08 -9.63312e-10
1.80766e-07 1.92657e-08 -5.74557e-10
1.62035e-07 2.51193e-08 -1.40887e-08
4.26814e-08 -3.88323e-08 -9.78533e-09
-1.27053e-07 9.42744e-10 -1.3319e-08
-1.27521e-07 1.52515e-09 -1.35491e-08
-1.07114e-07 2.89224e-08 -2.71911e-08
1.20385e-07 4.35195e-08 1.2778e-08
7.72203e-08 6.35857e-08 4.20077e-09
8.09771e-08 6.16293e-08 3.446e-09
1.66151e-08 6.59188e-08 3.07841e-09
1.79215e-08 6.6571e-08 2.25351e-09
-3.05198e-09 6.87606e-08 -1.31265e-08
-3.60884e-08 2.47814e-08 1.63876e-09
1.49457e-07 3.12179e-08 4.44987e-09
1.48209e-07 3.21093e-08 4.90986e-09
-1.07588e-07 2.97655e-08 -2.68036e-08
-1.03882e-07 3.12644e-08 -2.82893e-08
-3.58676e-08 6.77956e-08 -1.54127e-08
-3.75432e-08 6.50992e-08 -1.60894e-08
-5.8969e-08 -4.0768e-08 -3.4715e-11
-5.96987e-08 -4.05958e-08 5.99406e-10
-2.16375e-08 6.17162e-08 1.02098e-08
-5.64977e-08 -4.25662e-08 5.5986e-10
-6.75518e-08 4.65605e-08 -2.25247e-08
-4.21695e-08 6.08916e-08 -2.43815e-08
-4.27446e-08 6.03118e-08 -2.28629e-08
-6.85151e-08 4.51078e-08 -2.22947e-08
1.27227e-07 -1.31695e-08 3.78009e-09
1.24442e-07 -1.57482e-08 -1.28364e-10
-6.88511e-08 4.55849e-08 -2.0157e-08
-7.93386e-08 3.99395e-08 -2.46992e-08
-1.25303e-07 -3.60112e-09 -1.07028e-08
-1.25535e-07 -2.98222e-09 -1.09632e-08
-7.61084e-08 4.08733e-08 -2.49663e-08
9.06303e-08 5.75112e-08 1.38889e-08
1.27565e-08 6.86862e-08 -6.13597e-10
1.33177e-08 6.55934e-08 9.63362e-10
-1.12906e-07 2.08757e-08 -1.04355e-08
-1.14367e-07 2.14544e-08 -1.15699e-08
-8.9593e-09 6.98489e-08 -1.38366e-08
-7.67762e-08 4.29226e-08 -2.72238e-08
-1.23873e-07 -4.89884e-09 -4.74596e-09
-1.2494e-07 -4.37441e-09 -4.65255e-09
6.0103e-08 6.87974e-08 7.22874e-09
5.39851e-08 7.22817e-08 6.97701e-09
1.04583e-07 -2.41249e-08 -1.03989e-08
1.08832e-07 -2.50518e-08 -1.18974e-08
-1.29467e-07 9.89716e-09 -1.72536e-08
-1.29839e-07 1.08754e-08 -1.82071e-08
-2.34836e-10 7.63133e-08 -9.03642e-09
6.09605e-08 6.93943e-08 8.77687e-09
-6.81693e-08 4.33071e-08 1.68592e-08
-6.83193e-08 4.58774e-08 1.88539e-08
9.52634e-08 5.61475e-08 2.40205e-10
9.18539e-08 5.66518e-08 -5.59155e-10
1.18255e-08 7.31689e-08 -7.39372e-09
-1.00148e-07 1.5276e-08 -1.68145e-08
-1.00089e-07 1.68815e-08 -1.74075e-08
1.86334e-07 1.71523e-08 1.9104e-09
1.83871e-07 1.80924e-08 3.01142e-09
-3.68788e-08 5.51417e-08 1.47443e-08
-2.84742e-08 5.71023e-08 1.34935e-08
-3.06762e-08 5.68886e-08 1.48214e-08
-8.98156e-08 4.40222e-08 -2.93819e-08
-8.76978e-08 4.477e-08 -2.79699e-08
5.86804e-08 -3.7942e-08 1.15787e-08
6.25155e-08 -3.73061e-08 1.06149e-08
-8.72368e-08 4.42212e-08 -2.80035e-08
8.94315e-08 5.46471e-08 9.62227e-09
9.02474e-08 5.64535e-08 1.21942e-08
1.11829e-07 4.66531e-08 1.1994e-09
8.93657e-08 6.06473e-08 1.04076e-09
8.67605e-08 6.20479e-08 1.96015e-09
8.43733e-08 6.38116e-08 7.58265e-10
5.08182e-08 7.77973e-08 1.40122e-09
-9.94026e-09 -4.73689e-09 9.62221e-10
-9.42905e-09 -2.08693e-09 6.11608e-10
4.76312e-08 7.89052e-08 9.40753e-11
2.02443e-08 7.01504e-08 -7.16393e-09
-2.7925e-08 -4.95362e-08 -1.38379e-09
-3.92544e-08 4.15462e-08 4.08731e-09
-2.85796e-08 -4.99618e-08 -2.35624e-09
1.97101e-08 6.97311e-08 -6.41249e-09
5.98327e-09 7.6185e-08 -8.1312e-09
2.6052e-07 -9.32718e-09 1.55371e-08
2.66811e-07 -9.35287e-09 2.00537e-08
2.7184e-07 -1.08915e-08 2.06661e-08
-2.0562e-08 6.74185e-08 -1.53028e-08
-1.22635e-07 1.6646e-08 -2.2811e-08
-1.2164e-07 1.74143e-08 -2.28517e-08
-1.40199e-08 6.85397e-08 -1.49378e-08
-2.02451e-08 6.70067e-08 -1.71535e-08
-3.45273e-08 5.57526e-08 1.52963e-08
1.24197e-08 7.99888e-08 -6.01513e-09
1.53241e-07 2.94774e-08 2.25437e-09
1.5519e-07 2.93263e-08 2.2206e-09
5.5386e-08 -3.48748e-08 -9.49751e-09
5.95561e-08 -3.45929e-08 -9.05016e-09
2.98706e-08 6.90779e-08 -5.05109e-09
5.30271e-09 7.8055e-08 -7.1934e-09
-1.58992e-08 7.22983e-08 -1.26828e-08
-4.74906e-08 6.82344e-08 -6.99647e-09
-4.24827e-08 7.24926e-08 -4.91805e-09
-4.32832e-08 7.24502e-08 -6.40825e-09
6.1926e-08 -3.38486e-08 -1.38372e-08
6.62712e-08 -3.29958e-08 -1.33735e-08
-7.48754e-08 4.57355e-08 1.90073e-08
1.04416e-07 4.4402e-08 -1.74285e-08
1.02727e-07 4.37429e-08 -1.56854e-08
-1.15084e-07 -9.0407e-09 -4.74556e-09
-1.14798e-07 -8.4591e-09 -4.03237e-09
1.52747e-08 7.1665e-08 -7.806e-09
5.29219e-09 7.10603e-08 -1.0119e-08
-1.26452e-07 1.65228e-08 -2.07791e-08
-1.2667e-07 1.52736e-08 -1.94455e-08
1.2319e-08 6.9877e-08 -9.48577e-09
-2.82903e-08 6.43759e-08 -1.87229e-08
-1.09879e-07 -1.07863e-08 -6.14097e-09
-2.57628e-08 6.60194e-08 -1.95574e-08
-1.26127e-07 -3.93756e-09 -1.06102e-08
-1.26608e-07 -3.5486e-09 -1.07289e-08
-2.77172e-08 6.48393e-08 -2.06176e-08
3.43567e-09 3.35891e-08 -6.96232e-09
2.35873e-10 2.93483e-08 -5.42928e-09
1.03731e-07 4.96082e-08 1.08194e-08
1.09631e-07 4.96673e-08 1.67997e-09
1.11059e-07 4.87465e-08 2.54501e-09
3.19054e-08 7.80662e-08 -1.80893e-09
-3.44914e-08 5.84821e-08 1.49891e-08
-3.41198e-08 5.77762e-08 1.60236e-08
5.65895e-08 6.86228e-08 7.66253e-09
6.65153e-08 6.54503e-08 9.1431e-09
6.41479e-08 6.68844e-08 8.10483e-09
1.88306e-08 6.60038e-08 -2.26696e-09
2.28503e-08 6.83093e-08 -3.8699e-09
4.16022e-08 6.73601e-08 -6.11462e-11
1.13462e-07 3.55665e-08 -3.3029e-08
1.3831e-07 3.88086e-08 1.61651e-08
1.37238e-07 3.85041e-08 1.37674e-08
4.20595e-08 6.5779e-08 -1.685e-09
4.47056e-08 6.53465e-08 -1.13326e-09
6.9119e-08 6.05164e-08 3.85311e-09
2.52867e-07 -7.6459e-09 1.07366e-08
2.51537e-07 -6.21097e-09 1.3459e-08
-7.53262e-08 4.49136e-08 1.83684e-08
4.58704e-08 6.72607e-08 4.89054e-10
-1.84821e-08 3.39153e-08 -1.67229e-09
3.73135e-08 6.60122e-08 -8.15735e-09
3.08305e-08 6.86422e-08 -7.44087e-09
6.10103e-08 7.09357e-08 7.3666e-09
5.95553e-08 6.85964e-08 7.58395e-09
5.13115e-08 7.29062e-08 1.51813e-09
-5.15725e-08 5.65993e-08 -2.63985e-08
-2.07246e-08 7.02193e-08 -2.2618e-08
-4.58034e-08 6.83827e-08 -1.91387e-08
-4.58427e-08 6.644e-08 -1.94832e-08
1.72177e-07 1.41238e-08 -3.26986e-08
1.65848e-07 1.73059e-08 -3.55535e-08
-8.11029e-08 -3.03934e-08 -7.7287e-09
-7.76438e-08 -3.12954e-08 -8.11452e-09
7.06017e-09 -5.28948e-08 5.03922e-09
7.05022e-09 -5.31815e-08 5.8903e-09
-7.80134e-08 3.65413e-08 9.64315e-09
-7.83712e-08 3.66454e-08 7.39535e-09
1.52235e-07 3.07187e-08 1.8642e-09
1.50606e-07 3.08042e-08 1.88885e-09
-2.09517e-08 7.08765e-08 -2.14281e-08
-9.76243e-08 3.04464e-08 1.51455e-08
1.34286e-08 8.22842e-08 6.22019e-10
2.10401e-08 8.30723e-08 5.66274e-11
-9.8051e-08 -1.7572e-08 -6.2659e-09
-9.88905e-08 -1.6913e-08 -6.25949e-09
-5.0382e-08 5.71261e-08 -2.4698e-08
1.1394e-07 3.41674e-08 -3.23283e-08
1.84936e-08 7.55225e-08 -5.08782e-09
2.74925e-08 7.5013e-08 -4.66527e-09
1.86441e-07 1.78546e-08 8.13754e-09
1.84856e-07 1.87285e-08 8.00766e-09
5.95167e-08 6.52319e-08 2.97692e-09
6.43241e-08 6.31137e-08 2.41565e-09
-3.42853e-08 -5.31733e-08 -2.21808e-09
-3.60887e-08 -5.21897e-08 -3.23713e-09
1.80413e-07 1.77941e-08 -2.00525e-08
1.82738e-07 1.64643e-08 -1.91449e-08
-2.27913e-08 5.95583e-08 1.26984e-08
-2.54424e-08 5.68183e-08 1.3281e-08
-5.16017e-08 5.40413e-08 -2.49579e-08
-6.75755e-08 -3.16664e-08 -2.21703e-10
1.2052e-07 4.26724e-08 2.2321e-10
1.0907e-07 5.7585e-08 1.94643e-08
-1.1834e-07 1.7214e-08 7.04035e-09
-1.1924e-07 1.68121e-08 6.83972e-09
-5.65867e-08 -7.18385e-09 3.63396e-10
-4.6334e-08 6.73743e-08 -2.08699e-08
-5.24531e-08 6.64317e-08 -2.22144e-08
3.15773e-09 6.60126e-08 5.43547e-09
3.16027e-09 6.29513e-08 6.58587e-09
1.09418e-07 5.87568e-08 2.17781e-08
1.7446e-08 -6.07551e-08 5.34554e-09
2.23456e-08 -6.0809e-08 5.3788e-09
1.69892e-08 7.59332e-08 2.17912e-09
-6.71377e-08 -3.15566e-08 -3.28973e-10
-6.83809e-08 -3.0777e-08 -1.63162e-10
1.30775e-07 3.83751e-08 3.20436e-11
1.318e-07 3.77777e-08 -8.61786e-10
4.79012e-08 5.80688e-08 -5.68325e-09
4.8841e-08 5.8707e-08 -7.08045e-09
2.32672e-08 6.24786e-08 1.23293e-09
2.68359e-08 6.10197e-08 7.70904e-10
1.12477e-08 6.78173e-08 3.73197e-09
2.95143e-09 4.55295e-08 7.47863e-09
7.17796e-09 6.57001e-08 5.26205e-09
9.94616e-08 5.08445e-08 8.67223e-09
9.81095e-08 5.03419e-08 6.59919e-09
1.06406e-07 4.72934e-08 6.31866e-09
1.02162e-07 4.88047e-08 7.60239e-09
1.50937e-07 4.77279e-08 3.26368e-08
1.47258e-07 5.05924e-08 3.33933e-08
-9.12075e-08 -2.55367e-08 -2.98331e-09
-3.77185e-08 -3.55835e-09 -2.86601e-09
-9.0513e-08 -2.59585e-08 -3.60172e-09
1.84705e-07 1.85132e-08 7.01636e-09
1.88167e-07 1.71367e-08 4.1746e-09
1.0547e-07 4.3545e-08 -1.24963e-08
1.11803e-07 4.11135e-08 -1.09323e-08
-7.90013e-08 -3.45384e-08 -5.99709e-09
-7.49225e-08 -3.62166e-08 -6.39012e-09
-7.80941e-08 -3.5628e-08 -6.03517e-09
2.94614e-08 -4.61001e-08 1.13061e-08
2.9647e-08 -4.56318e-08 1.02826e-08
3.11331e-08 -4.5724e-08 1.12276e-08
-1.20829e-08 6.54857e-08 8.48677e-09
-1.25763e-08 -5.80236e-08 1.06909e-09
-7.47241e-09 -6.01342e-08 2.21749e-09
-8.50455e-09 -6.00705e-08 1.7396e-09
-7.2934e-08 -2.60145e-08 -5.51853e-09
-7.58294e-08 -2.69669e-08 -6.60168e-09
-7.54304e-08 -2.68536e-08 -5.95839e-09
-7.75781e-08 4.34566e-08 -2.86732e-08
1.21817e-07 4.1361e-08 -1.79242e-09
-7.70746e-08 4.2371e-08 -2.94871e-08
-1.01954e-07 2.84042e-08 1.44669e-08
6.1979e-09 7.04974e-08 -1.12567e-08
1.16073e-07 2.90505e-08 -3.01043e-08
1.06432e-07 3.15048e-08 -3.04351e-08
5.33999e-08 -3.63539e-08 -1.12475e-08
5.14395e-08 -3.61402e-08 -1.06219e-08
2.52451e-07 4.73137e-09 3.27308e-08
2.46989e-07 7.04036e-09 3.45178e-08
9.96818e-09 7.31328e-08 -9.35397e-09
9.9102e-09 6.92209e-08 -1.03014e-08
7.62795e-08 5.12484e-08 -6.91034e-09
9.97553e-08 4.50089e-08 -6.46617e-09
7.68723e-08 5.19378e-08 -8.4873e-09
7.56361e-08 5.11674e-08 -6.40196e-09
2.21902e-08 -4.85082e-08 -5.74251e-09
1.84932e-08 -4.7629e-08 -5.34183e-09
1.3669e-07 3.63573e-08 2.87918e-09
1.38234e-07 3.6336e-08 4.19083e-09
1.39513e-07 3.51388e-08 2.95762e-09
2.01209e-08 7.07497e-08 -5.63739e-09
9.34626e-09 7.17657e-08 -8.42849e-09
-2.773e-09 2.84019e-08 4.57054e-09
9.31353e-08 4.67936e-08 -6.38139e-09
-3.35122e-08 -1.00328e-08 -2.27038e-09
1.29217e-08 7.07201e-08 -6.6621e-09
1.83044e-08 -4.08607e-08 -7.64902e-09
2.12801e-08 -3.98245e-08 -8.2799e-09
2.15366e-08 -3.89974e-08 -7.60358e-09
1.64794e-07 2.41966e-08 -2.02516e-09
1.66838e-07 2.35693e-08 -3.43235e-10
1.67964e-07 2.29695e-08 -1.48654e-09
4.43054e-08 -4.43635e-08 1.24181e-08
4.02239e-08 -4.46267e-08 1.24516e-08
3.92334e-08 -4.51617e-08 1.18652e-08
1.17806e-07 4.33911e-08 5.59753e-09
1.19097e-07 4.26794e-08 6.23624e-09
-9.44757e-08 1.8516e-08 -1.66591e-08
-9.70734e-08 1.85749e-08 -1.76263e-08
1.22343e-07 4.13615e-08 4.83314e-09
1.49949e-07 -2.70894e-08 2.3016e-08
-1.20954e-07 9.48882e-09 -1.81328e-08
-1.21855e-07 8.09147e-09 -1.71939e-08
1.3971e-07 -2.53006e-08 1.93751e-08
1.41152e-07 -2.58875e-08 2.05671e-08
1.11102e-07 5.02889e-08 1.67545e-08
1.14879e-07 4.74414e-08 1.57043e-08
3.08842e-08 7.17863e-08 1.79967e-08
1.19767e-07 4.70837e-08 1.65316e-08
-5.38925e-08 -3.99726e-08 -5.61518e-09
3.07411e-08 7.33794e-08 1.86259e-08
-5.16433e-08 -4.18841e-08 -5.79532e-09
-4.69519e-08 -4.1637e-08 -5.32169e-09
1.93923e-07 1.39554e-08 1.45967e-09
-6.94525e-08 4.77331e-08 1.90266e-08
-6.98061e-08 4.87847e-08 1.88724e-08
1.92344e-07 1.46291e-08 1.33706e-09