# vtk DataFile Version 2.0
S, Created by Mohamad Ibrahim Cheikh
ASCII
DATASET UNSTRUCTURED_GRID
POINTS 17222 double
-215.648 10.7038 -43.9991
-198.661 30.9757 -44.1889
-50.5788 -83.0358 23.1484
-52.1111 -83.4834 21.0252
-118.621 -35.9732 68.7547
-115.835 -37.8087 68.3504
-170.345 -58.2576 -28.2389
-199.651 28.1227 -45.5299
-201.119 52.8144 -1.57066
-200.645 53.0398 1.38858
-21.1107 85.2529 -20.5275
-18.2089 85.658 -19.1342
-138.997 45.3016 -57.675
4.4641 18.132 -86.0976
-141.653 43.7676 -58.0669
-219.418 -8.73093 42.1123
-217.717 -11.2848 42.5839
-225.64 12.2526 -36.8853
-226.932 9.91004 -36.6176
-133.184 -27.7219 -69.3097
1.78924 -4.98462 87.8565
-133.419 -30.2397 -68.1926
-161.022 -13.3584 66.266
0.171687 -0.318711 87.9994
-159.398 -10.8086 67.2049
-145.474 -32.9696 -63.7655
-144.582 -36.0055 -62.3563
-155.295 45.7086 51.9819
-152.839 46.8772 51.8321
-7.88342 11.9128 -87.1463
0.459132 9.58116 87.4767
-219.126 9.40208 42.1537
-218.931 6.51099 42.8187
-220.295 41.4565 -9.15593
-158.267 20.0869 65.3744
-221.976 40.1228 -10.0788
205.163 -37.6311 -34.2718
208.094 -36.3677 -33.4633
-166.854 62.0216 22.1092
-166.674 60.8594 25.2781
-158.172 34.0146 59.3633
-155.719 35.5255 59.2721
-185.121 -10.5024 58.6346
-15.8026 12.147 -86.982
-182.775 -12.3992 59.1629
-212.518 47.059 0.190622
-210.302 48.2412 1.44054
221.05 -31.8954 -27.2825
-220.287 42.0682 -5.75759
-217.885 43.6458 -5.17609
-216.531 44.6684 -2.91917
238.043 -3.12085 -28.2277
237.048 -5.54919 -28.8723
-11.6995 -6.99605 87.6259
222.671 -29.7539 -28.0767
-185.387 -30.8858 -50.8168
-211.954 9.70695 -46.3641
-181.946 -32.209 -51.5133
-176.668 32.618 -53.4679
-222.229 -37.8358 16.3136
-219.335 -39.9433 16.0837
-217.554 -40.0155 18.6594
-143.016 70.5548 16.1829
-143.584 69.7788 18.7313
-224.198 20.5625 -34.1652
-222.485 23.267 -33.7994
-215.569 44.5254 -8.49237
-212.844 46.1225 -8.38333
-184.364 28.8489 -52.4434
-182.154 30.3388 -52.5482
-146.927 68.6125 19.8331
-149.948 68.1721 18.5416
-193.077 -11.574 55.1904
-190.481 -10.1128 56.5648
-132.049 -61.5127 -42.7246
-132.695 -63.1468 -40.0092
-179.21 30.504 -53.6797
-179.346 27.8522 -55.0479
-162.231 24.9139 62.4584
-164.985 23.6731 62.0566
-186.956 2.18394 58.8215
3.8133 3.69651 87.9122
-188.647 0.081568 58.1979
-123.63 -65.8345 -39.2242
-120.632 -66.2409 -39.6803
-175.654 -32.3237 54.0525
-188.817 54.8978 -19.114
12.9144 2.08993 -87.8591
-176.247 -29.5103 55.4084
-200.356 8.90849 -52.4403
-202.475 6.50823 -51.7926
-174.532 -29.2234 -56.2191
-171.815 -28.0267 -57.83
-174.914 47.6253 41.5944
-175.892 45.4438 43.4869
-159.66 11.5924 -66.9978
-159.498 8.54722 -67.5008
-119.178 -67.8319 -37.4688
-229.478 35.4522 -6.31948
-242.314 -21.9628 8.54511
-243.275 -21.6166 5.5646
-236.833 -0.130214 -29.6124
-236.052 -3.59189 -30.1534
-139.35 68.6689 -25.5181
-140.808 69.1423 -23.1499
-140.399 63.2267 36.5108
-140.895 64.7719 33.4392
-195.146 45.3449 -32.0228
-192.397 46.6478 -32.187
-142.827 61.9184 37.5843
-211.726 33.3152 -33.8498
-210.163 -34.4738 33.8817
-211.966 -35.7405 31.0782
-129.381 73.1694 -18.4612
-128.863 72.5151 -21.2727
-203.506 35.5597 -37.5378
-201.269 37.5697 -37.0534
-159.082 65.3528 19.3559
-161.186 65.2263 17.5696
-209.259 45.8573 -16.732
-210.924 44.132 -18.6974
-209.846 35.3967 -33.1637
-206.902 36.2057 -34.5269
82.354 -33.3948 -76.1475
-170.674 -43.3043 47.9831
-173.884 -42.7365 47.0726
-217.944 37.3115 23.1613
-220.626 36.5065 21.2574
-221.81 28.7122 29.9346
-220.493 31.1537 28.6575
-173.121 59.6005 -22.8563
-237.798 14.8823 -24.4812
-171.202 60.9919 -20.8692
-168.013 61.9921 -21.0948
-189.332 36.5552 -44.9332
-195.749 33.4406 -43.9825
-192.276 34.3271 -45.1595
-201.815 42.7821 -30.4497
-216.355 32.0717 -31.3766
-204.921 41.3738 -29.8504
-206.646 39.1929 -31.3022
-240.949 11.3758 -22.51
-143.778 -40.1828 59.9871
-126.559 -70.1142 29.4447
195.901 -0.492096 -55.1836
-202.953 -12.3747 50.4773
-200.844 -10.6775 51.8782
-203.367 21.23 47.2209
-205.708 19.1681 46.8597
-123.609 -71.0649 28.6903
-159.033 33.7462 -59.2347
-157.167 30.4136 -61.602
-160.107 30.8868 -60.4284
14.8985 -16.5264 86.2769
11.8432 -15.5587 86.5145
-183.334 38.3398 -46.465
-179.935 39.2776 -47.3009
-241.591 -13.8754 20.1406
-240.784 -16.8727 19.0043
-226.881 12.5663 35.8328
-224.98 11.1459 37.7201
-187.213 -35.5539 -46.7856
22.8805 9.2919 87.1411
-184.595 -36.4696 -47.3509
-197.395 -25.3814 48.2631
-200.136 -24.6043 47.2731
-113.462 15.8636 -76.917
-114.369 20.5637 -75.6288
-204.468 28.9999 -42.2438
-205.149 26.6327 -43.3828
-115.583 17.8539 -76.0896
-237.025 21.6292 19.9486
-226.543 34.2231 -17.0137
-224.347 36.3015 -16.2505
-211.603 38.0693 -28.5099
-237.172 19.1829 22.1183
-234.949 24.1479 20.0645
-228.272 -4.21136 -36.6967
-168.361 -37.1947 -53.7607
-169.999 -34.7287 -54.7696
-171.687 49.5249 41.0177
-168.634 49.6517 42.3921
-233.033 -7.27448 -32.2887
-153.971 32.3126 -61.6232
-229.093 -6.60143 -35.7045
-147.803 -68.6166 -19.0047
-241.262 13.7152 -20.7256
-230.832 -8.11547 -33.9796
46.7186 -60.6068 -61.6733
-223.676 7.21331 39.5813
-223.651 4.22422 40.0273
47.3141 -82.8831 -24.5013
50.0091 -82.5034 -25.1199
-107.56 -79.5359 -1.27495
-109.873 -79.1095 -2.77748
50.0859 -60.4929 -61.4612
-98.5974 71.2296 -38.4725
-96.8231 70.173 -40.8902
-93.485 71.0709 -40.2858
-234.91 19.455 24.687
-215.664 28.8988 -34.8496
-204.965 8.52622 50.2784
-235.872 16.5601 25.6564
-30.9993 -68.2004 -54.5441
184.215 51.4417 30.709
-32.575 -65.9888 -57.0926
-215.576 25.1611 -37.6992
6.34672 -9.79533 -87.4249
-232.848 21.4032 25.4544
9.51862 -9.87068 -87.3812
41.6645 2.97959 -86.7329
39.072 4.76371 -86.8009
54.285 -61.3612 60.15
1.23494 -11.84 -87.1988
51.2357 -60.8927 60.9482
90.2395 50.1063 65.0876
91.3815 47.9217 66.5217
88.3834 -51.0195 64.6887
85.2783 -52.2404 64.2228
-152.617 -68.4488 -14.3922
-149.779 -69.3117 -13.9038
215.592 42.3397 -16.1485
216.506 42.7887 -13.1991
-147.844 -69.3307 -16.1609
-194.198 -20.234 -52.1285
-196.424 -21.21 -50.7
-199.207 25.5054 47.2761
124.016 72.0667 25.8345
126.273 70.9785 27.4573
0.894742 87.2252 11.6476
-1.11326 86.8894 13.9311
-182.35 -53.5525 28.3752
-178.786 -54.7731 28.8184
-197.386 27.2027 47.2649
-225.98 7.84609 37.8194
-228.012 6.15703 36.62
-228.045 3.21222 36.9694
-212.417 21.2138 -42.0688
-205.077 38.1845 -33.7184
-65.3061 78.089 33.5255
-192.44 -22.1065 -52.1663
-193.561 -24.3206 -50.6513
-66.7572 76.9528 35.7304
-209.215 43.1021 22.9634
-211.138 42.962 20.9859
-73.2068 84.0925 4.03881
-72.3571 83.995 6.91759
-69.8524 76.1867 36.6361
182.166 36.5732 -48.4107
11.4544 -85.622 -19.9199
8.14003 -85.7622 -19.5125
-111.773 -74.5261 -25.6962
-130.738 58.4261 -47.305
-219.566 34.5498 -25.4565
-217.831 36.6244 -24.3576
-215.486 4.73735 45.1288
-212.896 5.63967 46.5087
-203.432 -10.5641 -50.6524
-8.43231 -7.21582 87.654
-124.508 75.2571 -13.5059
-127.407 74.5222 -14.2503
-115.343 -73.862 -25.6821
-116.254 -72.6848 -28.3947
-230.776 -21.0769 -27.9182
-228.745 -22.9733 -28.4633
211.474 -37.5761 -29.2713
208.859 -38.2083 -30.716
-211.295 -16.3027 44.8582
213.772 -35.2865 -30.066
-195.908 -47.8711 -27.45
-191.689 -34.257 -45.5169
-194.8 -33.5287 -44.4293
-197.24 -48.6869 -24.7098
72.8028 74.1434 -39.973
75.5648 73.0415 -41.3505
-200.439 -47.4536 -23.9465
-175.958 -57.8313 -24.6767
30.9682 -85.8379 -16.0763
28.5973 -85.6928 -17.3383
-175.569 -56.652 -27.581
-134.036 41.0877 -62.0987
-107.793 3.36021 79.4365
-110.624 1.7801 79.0099
-119.123 -77.471 2.21722
-118.521 -77.6087 -1.04091
-212.521 -12.1289 -45.4676
-172.688 -56.5556 -29.9075
16.4785 -82.1719 30.9601
14.6709 -83.0585 28.617
-136.127 22.2013 -70.5862
-138.023 19.6928 -70.8792
94.2814 68.7358 -43.9444
95.8231 70.2226 -41.0928
-35.6891 -85.4973 -16.6813
-38.6075 -85.1623 -17.5755
-233.472 -3.70837 -32.5068
-133.344 23.5245 -70.8076
-141.094 -48.255 54.5725
-137.943 -47.9109 55.847
-214.281 44.6865 11.2061
-215.705 43.1727 13.5503
-223.844 0.594959 -40.1138
8.32589 -61.8259 -62.5546
5.55208 -61.0081 -63.3895
-61.7031 84.3064 -13.0501
-64.9313 83.855 -14.0058
-164.768 -29.2731 59.6933
-163.468 -24.5042 62.2253
-165.2 -26.5659 60.803
-50.8388 -56.1007 -65.4238
-49.3546 -53.7521 -67.5018
201.157 45.9062 26.1265
200.555 47.6539 23.424
-46.093 -53.7852 -67.7572
-152.186 40.7463 -56.9929
-149.207 41.785 -57.2048
-191.866 56.3366 7.94964
-222.923 40.5161 -4.2805
-224.998 38.9211 -5.58818
-227.601 37.1297 -4.82031
-239.536 19.7252 -18.1703
28.8318 10.2011 86.8226
25.3392 11.3941 86.8076
-241.497 18.1107 -16.6054
-213.004 2.9688 -46.6953
206.527 -15.7385 47.689
-33.7379 -12.2673 86.3375
203.637 -16.7199 48.8621
-215.517 3.5094 -45.2228
-229.431 -1.41038 -36.02
30.9469 86.7805 -9.79264
32.9855 86.399 -12.0832
35.9999 86.3846 -11.0919
-216.021 -17.2991 -41.6114
-37.513 -80.063 -34.0826
-36.6341 -78.9697 -36.6535
-215.944 -14.5036 -42.7143
-213.607 -18.5858 -42.5716
-153.096 -28.868 63.5694
-239.967 2.83044 -26.1903
-119.974 77.1505 -5.43602
-118.785 77.5275 -2.45205
189.387 46.19 -34.9175
189.27 48.1741 -32.2092
-214.191 8.23121 -45.3807
-239.344 -0.267253 -27.0265
-230.483 -11.804 -33.179
-243.396 -21.1895 -6.48472
-246.234 -17.6505 -3.05923
-245.369 -18.2746 -6.24573
133.912 51.7422 -53.5843
133.507 53.6598 -51.7919
-92.0571 -46.3214 67.5336
-106.01 53.869 58.8749
-104.721 52.1105 60.7114
34.6085 -76.4641 41.8401
32.5607 -75.527 43.7021
-217.576 1.08692 -44.1254
-217.396 -4.07721 -44.059
-62.1671 -82.8948 -19.9822
-59.2297 -83.4533 -18.7094
-216.371 -1.20583 -44.842
-202.965 -24.0989 -46.0408
76.5518 -76.8032 -33.5828
-196.744 -23.81 -49.3764
30.0795 -86.5045 -12.2555
27.4205 -86.7143 -11.5141
-198.949 -25.3049 -47.5158
-8.02018 18.0356 86.0863
-5.63297 16.085 86.495
-148.917 49.4421 -50.8373
-198.072 53.9476 -5.51441
-195.251 55.0512 -6.77729
-235.354 11.3426 -28.8744
-150.59 -27.3366 64.9639
-147.685 -28.5855 65.2424
-149.85 22.8197 -66.8887
-145.944 27.6182 -66.1326
-148.766 25.7046 -66.1342
-105.856 6.62282 79.5502
-107.011 9.06611 79.119
-167.325 12.8019 -64.4387
-8.34752 61.74 62.639
-105.895 65.5115 -45.5997
-109.588 64.5425 -45.9123
-199.727 14.5209 -51.4713
[...]
POINT_DATA 17222
VECTORS F double
3.44062e-08 6.80959e-08 -4.07981e-09
6.96108e-08 5.84762e-08 2.67615e-09
-1.24547e-07 8.18833e-09 -3.94489e-09
-1.24183e-07 8.29205e-09 -4.75777e-09
-5.22094e-08 5.19729e-08 1.61647e-08
-5.28478e-08 4.98082e-08 1.65868e-08
-7.34148e-08 3.95303e-08 -2.73327e-08
6.34953e-08 5.95105e-08 2.66975e-09
1.04551e-07 4.87568e-08 4.43942e-10
1.04595e-07 4.84168e-08 9.78063e-10
2.04755e-07 9.43116e-09 1.3388e-08
2.08077e-07 8.25428e-09 1.27088e-08
9.77389e-08 5.08752e-08 1.11221e-08
1.93427e-08 6.34452e-08 1.34842e-08
9.61469e-08 5.16339e-08 1.02029e-08
-1.13393e-08 6.47655e-08 6.19419e-09
-1.4552e-08 6.21035e-08 7.34875e-09
3.65355e-08 7.02863e-08 -4.01557e-09
3.13489e-08 7.20157e-08 -4.29584e-09
-1.84597e-08 7.60969e-08 -2.60938e-08
-3.35106e-08 1.18584e-08 7.56345e-10
-2.49035e-08 7.52489e-08 -2.74035e-08
-1.24512e-08 5.90014e-08 8.18975e-09
-2.7157e-08 1.4438e-08 5.88121e-11
-6.76713e-09 5.73292e-08 7.25526e-09
-2.68295e-08 6.9753e-08 -2.85716e-08
-3.21851e-08 6.67137e-08 -2.93851e-08
8.64093e-08 4.52702e-08 -8.20188e-09
8.66637e-08 4.61993e-08 -1.04959e-08
1.29455e-08 7.18733e-08 9.68163e-09
-1.33751e-08 1.59505e-08 -1.73844e-09
2.38297e-08 6.53426e-08 5.91716e-10
1.77576e-08 6.4535e-08 1.30284e-09
8.8155e-08 5.75569e-08 9.27912e-10
4.22391e-08 5.60396e-08 -4.69916e-09
8.60329e-08 5.86756e-08 1.60133e-09
-5.64329e-08 -3.79991e-08 3.63305e-10
-5.55949e-08 -3.85996e-08 -3.76852e-10
1.16127e-07 3.95697e-08 -3.70596e-09
1.1377e-07 3.94119e-08 -3.04596e-09
6.6114e-08 5.20626e-08 -8.2642e-09
6.86901e-08 4.95104e-08 -7.58059e-09
-8.08135e-09 5.78281e-08 7.23418e-09
1.7863e-08 7.5547e-08 1.01528e-08
-8.76135e-09 5.61295e-08 8.44964e-09
9.60629e-08 5.3109e-08 9.0992e-10
9.7815e-08 5.22038e-08 7.27418e-11
-5.15255e-08 -4.33497e-08 -4.32235e-10
8.91054e-08 5.73194e-08 1.41753e-09
9.10622e-08 5.57733e-08 9.88256e-10
9.33677e-08 5.54495e-08 5.69015e-10
-8.32834e-09 -5.63051e-08 -2.37366e-09
-1.27645e-08 -5.48749e-08 -2.284e-09
-3.62515e-08 2.19103e-08 1.15673e-09
-4.87383e-08 -4.48967e-08 2.55059e-10
-3.05527e-08 6.13409e-08 -2.3636e-08
3.28479e-08 6.69331e-08 -4.37146e-09
-3.02016e-08 6.08477e-08 -2.49854e-08
7.20943e-08 5.65436e-08 5.32981e-09
-6.33113e-08 4.71044e-08 3.65846e-09
-6.41948e-08 4.45726e-08 3.51563e-09
-6.44034e-08 4.52561e-08 5.12044e-09
1.33257e-07 3.36225e-08 -2.40775e-09
1.30622e-07 3.34867e-08 -2.16041e-09
5.09225e-08 6.83803e-08 2.43449e-10
5.63822e-08 6.59295e-08 -5.36625e-11
9.28699e-08 5.5342e-08 1.53998e-09
9.46999e-08 5.37902e-08 1.57284e-09
6.58343e-08 5.86257e-08 3.91446e-09
6.78565e-08 5.72817e-08 4.27379e-09
1.28785e-07 3.46278e-08 -2.98814e-09
1.27506e-07 3.49005e-08 -2.07461e-09
-1.01625e-08 5.80267e-08 7.81609e-09
-8.73137e-09 5.84226e-08 6.84518e-09
-7.90249e-08 4.54182e-08 -3.54883e-08
-8.23628e-08 4.40438e-08 -3.6071e-08
6.89811e-08 5.86721e-08 5.14599e-09
6.31505e-08 5.85356e-08 4.42747e-09
4.98823e-08 5.63139e-08 -6.60014e-09
4.91078e-08 5.55869e-08 -5.22067e-09
1.187e-08 5.84984e-08 2.447e-09
-2.17383e-08 1.2177e-08 -3.96574e-10
8.08093e-09 6.00656e-08 3.12275e-09
-8.78214e-08 4.1227e-08 -3.5307e-08
-8.72779e-08 4.10687e-08 -3.60737e-08
-4.13784e-08 4.92451e-08 1.29861e-08
1.06719e-07 4.57478e-08 2.32473e-09
-1.47441e-08 4.38587e-08 7.77912e-10
-3.55008e-08 5.11942e-08 1.34406e-08
3.4348e-08 6.47911e-08 -5.06014e-09
3.00049e-08 6.7178e-08 -5.91945e-09
-2.42779e-08 6.27779e-08 -2.34051e-08
-2.33845e-08 6.49172e-08 -2.29554e-08
9.07402e-08 4.4709e-08 -4.47406e-09
8.51976e-08 4.54582e-08 -5.31434e-09
4.13501e-08 6.95788e-08 -2.54001e-11
3.58039e-08 6.87787e-08 -1.64876e-09
-9.15614e-08 3.8536e-08 -3.41084e-08
7.91747e-08 6.2829e-08 4.75287e-10
-4.77359e-08 6.439e-08 -2.31431e-10
-4.73119e-08 6.47373e-08 -1.75256e-09
8.19249e-09 7.56724e-08 -8.35474e-09
8.91946e-10 7.34505e-08 -9.60452e-09
1.33485e-07 3.5059e-08 5.09873e-09
1.33555e-07 3.52368e-08 5.78729e-09
1.17858e-07 3.57048e-08 -6.34382e-09
1.2152e-07 3.61598e-08 -7.35451e-09
9.26094e-08 5.12715e-08 3.50669e-09
9.36699e-08 5.07285e-08 4.96934e-09
1.15801e-07 3.6978e-08 -7.04221e-09
7.28769e-08 5.97923e-08 3.03977e-09
-5.21897e-08 4.95085e-08 1.07398e-08
-5.40837e-08 4.8699e-08 1.08434e-08
1.41974e-07 3.19222e-08 4.70341e-09
1.41914e-07 3.21157e-08 4.22808e-09
7.69155e-08 5.73004e-08 3.22889e-09
8.00991e-08 5.50622e-08 2.56156e-09
1.22317e-07 3.72687e-08 -2.75346e-09
1.21673e-07 3.75466e-08 -2.72784e-09
9.45557e-08 5.36548e-08 2.26968e-09
9.13237e-08 5.48098e-08 3.23954e-09
7.68963e-08 5.76962e-08 2.01046e-09
7.81117e-08 5.76987e-08 3.19661e-09
-5.90524e-08 -1.14861e-08 -2.78181e-09
-5.70092e-08 4.30477e-08 1.40238e-08
-5.73524e-08 4.24888e-08 1.26372e-08
7.74768e-08 5.70823e-08 -2.699e-09
7.61187e-08 5.75345e-08 -2.08483e-09
6.02979e-08 6.12136e-08 -4.01252e-09
6.55908e-08 5.94548e-08 -2.8479e-09
1.14394e-07 4.24113e-08 4.5113e-09
4.0252e-08 7.52136e-08 -2.14594e-09
1.17326e-07 4.14322e-08 3.24967e-09
1.18339e-07 4.06451e-08 4.05115e-09
7.71156e-08 5.50424e-08 4.99737e-09
7.24868e-08 5.68219e-08 3.70515e-09
7.38431e-08 5.78043e-08 5.4463e-09
8.82924e-08 5.40172e-08 4.25001e-09
7.05484e-08 6.03621e-08 2.14139e-09
8.6977e-08 5.46033e-08 2.58008e-09
8.30527e-08 5.62902e-08 3.3532e-09
3.20779e-08 7.71495e-08 -3.04973e-09
-5.25558e-08 4.78062e-08 1.66012e-08
-9.97554e-08 2.45515e-08 5.96803e-09
-6.00407e-09 -4.28114e-08 -2.22779e-09
-1.27133e-08 5.78791e-08 7.93117e-09
-1.15148e-08 5.88305e-08 6.65056e-09
4.42126e-08 5.79343e-08 -2.73449e-09
4.14292e-08 5.9497e-08 -2.0711e-09
-9.97342e-08 2.32514e-08 4.98543e-09
7.62086e-08 5.78974e-08 7.93453e-09
7.17125e-08 6.1575e-08 8.00019e-09
7.03634e-08 5.91716e-08 7.41972e-09
-4.63935e-08 2.33142e-10 1.02548e-09
-4.61499e-08 2.15628e-09 1.16126e-09
8.0788e-08 5.34682e-08 5.09233e-09
8.22499e-08 5.41144e-08 6.62889e-09
-2.93419e-08 6.94847e-08 4.77908e-09
-3.58323e-08 6.71554e-08 4.04031e-09
2.88815e-08 6.67517e-08 -1.02064e-09
2.73331e-08 6.54477e-08 6.20575e-10
-3.94919e-08 5.8288e-08 -2.49477e-08
-1.20188e-08 -3.52207e-09 7.61951e-10
-3.86769e-08 5.83754e-08 -2.65006e-08
-3.26039e-08 5.53688e-08 1.27923e-08
-3.31279e-08 5.53525e-08 1.16385e-08
5.5817e-08 7.44224e-08 5.26858e-09
6.26788e-08 7.16483e-08 7.87684e-09
6.63194e-08 6.02725e-08 2.07637e-09
6.09945e-08 6.09363e-08 2.09583e-09
5.55287e-08 7.41779e-08 7.07824e-09
5.08785e-08 7.12854e-08 -3.27813e-09
7.64212e-08 6.30278e-08 2.19889e-09
7.94639e-08 6.07758e-08 1.45351e-09
8.11602e-08 5.75848e-08 3.14373e-09
4.43242e-08 7.08225e-08 -3.23378e-09
5.54524e-08 6.86703e-08 -3.14764e-09
3.18601e-09 7.13594e-08 -1.06158e-08
-3.59474e-08 5.86686e-08 -2.68076e-08
-3.32561e-08 6.15511e-08 -2.6391e-08
9.21604e-08 4.35058e-08 -5.30083e-09
9.34172e-08 4.43465e-08 -6.44429e-09
-5.77451e-09 7.19768e-08 -1.11138e-08
7.31966e-08 6.078e-08 9.47935e-09
-2.81425e-09 7.20089e-08 -1.11031e-08
-9.09926e-08 3.10528e-08 -2.54765e-08
3.76939e-08 7.78862e-08 -2.17957e-09
-5.69295e-09 7.18341e-08 -1.24216e-08
-9.31391e-08 1.47065e-09 -1.00833e-08
1.96572e-08 6.60995e-08 1.55408e-09
1.29838e-08 6.5474e-08 1.97228e-09
-1.16185e-07 -4.8451e-09 -1.10788e-08
-1.1568e-07 -5.29854e-09 -1.07931e-08
-1.12916e-07 1.8942e-08 -1.53867e-08
-1.12238e-07 1.97012e-08 -1.75501e-08
-9.26803e-08 8.18032e-10 -1.0052e-08
1.46865e-07 3.19449e-08 1.30631e-08
1.47707e-07 3.23167e-08 1.26393e-08
1.48958e-07 3.18696e-08 1.39034e-08
4.49707e-08 7.00145e-08 -2.78527e-09
6.48418e-08 6.24891e-08 2.69106e-09
2.20763e-08 6.18092e-08 5.3671e-10
3.79772e-08 7.13629e-08 -3.31553e-09
-1.04226e-07 2.80731e-08 -2.78495e-08
6.19843e-08 -3.54915e-08 1.39301e-08
-1.00549e-07 3.08072e-08 -2.85838e-08
5.89481e-08 6.40339e-08 1.46811e-09
-3.16551e-08 4.43667e-08 -5.25232e-09
4.82407e-08 6.83668e-08 -3.45831e-09
-3.14214e-08 4.14869e-08 -5.10546e-09
-1.80092e-08 1.63696e-08 -4.96844e-10
-1.5699e-08 2.03847e-08 2.53557e-10
-9.2659e-08 -1.58167e-08 -5.89696e-09
-3.32096e-08 4.7961e-08 -6.56979e-09
-9.3017e-08 -1.55276e-08 -5.94014e-09
6.43726e-08 -3.96008e-08 1.95591e-08
6.01113e-08 -4.17813e-08 1.99892e-08
-7.6853e-08 -2.43975e-08 -6.38655e-09
-7.76369e-08 -2.34381e-08 -6.44374e-09
-9.19567e-08 2.99299e-08 -2.29612e-08
-9.15548e-08 2.87567e-08 -2.26043e-08
5.70297e-08 -3.68329e-08 -3.35587e-09
5.77854e-08 -3.67699e-08 -3.15348e-09
-9.29168e-08 3.00346e-08 -2.47797e-08
-1.55942e-08 6.70143e-08 -1.88995e-08
-1.57073e-08 6.46099e-08 -1.95788e-08
5.2382e-08 5.6397e-08 -3.40305e-09
1.0313e-07 -2.78599e-08 1.71061e-08
1.0139e-07 -2.93603e-08 1.88105e-08
2.19677e-07 -5.14115e-10 1.78439e-09
2.15294e-07 5.03983e-10 -1.03679e-09
-7.43146e-08 3.52366e-08 8.03249e-09
-7.39465e-08 3.41243e-08 8.69214e-09
5.48542e-08 5.51618e-08 -3.70127e-09
1.98724e-08 6.7025e-08 6.32547e-10
1.72318e-08 6.79323e-08 1.71424e-09
1.03434e-08 6.7363e-08 1.95842e-09
5.331e-08 6.47464e-08 -3.06157e-10
8.16622e-08 5.56207e-08 2.17985e-09
1.62691e-07 2.12611e-08 -1.07223e-08
-1.68095e-08 6.52508e-08 -2.00595e-08
-2.13718e-08 6.56436e-08 -2.15203e-08
1.57873e-07 2.24259e-08 -1.21863e-08
8.67177e-08 5.25946e-08 -1.99106e-09
8.62294e-08 5.29438e-08 -2.17098e-09
1.74628e-07 1.85696e-08 8.84544e-10
1.75137e-07 1.83649e-08 1.29126e-09
1.56053e-07 2.33866e-08 -1.22058e-08
4.10784e-08 -3.7662e-08 -9.52808e-09
-1.23077e-07 1.52693e-09 -1.5228e-08
-1.23545e-07 2.09668e-09 -1.55254e-08
-1.01743e-07 2.91259e-08 -3.02903e-08
1.18859e-07 4.17796e-08 1.1384e-08
7.60068e-08 6.13577e-08 3.01354e-09
7.95735e-08 5.94889e-08 2.32338e-09
1.50093e-08 6.31211e-08 2.14834e-09
1.62789e-08 6.37369e-08 1.39443e-09
-2.29148e-10 6.66092e-08 -1.37794e-08
-3.5975e-08 1.97371e-08 1.20107e-09
1.45375e-07 3.00993e-08 3.63896e-09
1.44153e-07 3.09543e-08 4.08423e-09
-1.02215e-07 2.99136e-08 -2.98279e-08
-9.84088e-08 3.14913e-08 -3.12831e-08
-3.28192e-08 6.56502e-08 -1.6349e-08
-3.44246e-08 6.30548e-08 -1.70222e-08
-5.76045e-08 -3.93928e-08 -3.82697e-10
-5.83154e-08 -3.92155e-08 2.34147e-10
-2.15825e-08 5.87717e-08 8.91297e-09
-5.52201e-08 -4.11311e-08 2.0408e-10
-6.3153e-08 4.53098e-08 -2.38361e-08
-3.796e-08 5.9445e-08 -2.51674e-08
-3.85487e-08 5.87893e-08 -2.36727e-08
-6.42176e-08 4.38606e-08 -2.36625e-08
1.2951e-07 -7.71776e-09 1.45632e-08
1.25402e-07 -1.09866e-08 8.64967e-09
-6.45705e-08 4.42387e-08 -2.14952e-08
-7.45307e-08 3.90311e-08 -2.64069e-08
-1.21559e-07 -3.07023e-09 -1.22755e-08
-1.21738e-07 -2.42189e-09 -1.2613e-08
-7.12424e-08 3.99983e-08 -2.66354e-08
9.1032e-08 5.51631e-08 1.24428e-08
1.0632e-08 6.4692e-08 -9.70185e-10
1.11691e-08 6.16974e-08 5.24557e-10
-1.08183e-07 1.99731e-08 -1.37247e-08
-1.09518e-07 2.06756e-08 -1.48299e-08
-6.1545e-09 6.76555e-08 -1.45259e-08
-7.1846e-08 4.20829e-08 -2.87902e-08
-1.19845e-07 -5.31757e-09 -6.30403e-09
-1.20886e-07 -4.76066e-09 -6.22985e-09
6.21638e-08 6.65366e-08 6.25014e-09
5.62195e-08 6.99509e-08 6.03164e-09
1.03004e-07 -2.16055e-08 -6.73812e-09
1.06767e-07 -2.2524e-08 -8.00957e-09
-1.24896e-07 1.02483e-08 -1.98116e-08
-1.25218e-07 1.12555e-08 -2.08626e-08
1.7915e-09 7.38469e-08 -9.99993e-09
6.30538e-08 6.70338e-08 7.73309e-09
-6.63338e-08 4.01645e-08 1.45178e-08
-6.64733e-08 4.26269e-08 1.64676e-08
9.17256e-08 5.39984e-08 -5.91336e-10
8.83261e-08 5.44785e-08 -1.43125e-09
1.36559e-08 7.08007e-08 -8.27943e-09
-9.6872e-08 1.71547e-08 -1.85334e-08
-9.67253e-08 1.89016e-08 -1.92287e-08
1.81211e-07 1.70439e-08 5.20861e-09
1.78924e-07 1.79313e-08 5.80171e-09
-3.62629e-08 5.18244e-08 1.31596e-08
-2.82586e-08 5.37134e-08 1.20635e-08
-3.03052e-08 5.34636e-08 1.32785e-08
-8.47873e-08 4.63117e-08 -3.16457e-08
-8.27572e-08 4.71671e-08 -3.01514e-08
5.7019e-08 -3.69492e-08 1.11745e-08
6.07174e-08 -3.63281e-08 1.02598e-08
-8.23058e-08 4.66734e-08 -3.01941e-08
8.92857e-08 5.25082e-08 8.35057e-09
9.0121e-08 5.41718e-08 1.07907e-08
1.07879e-07 4.49163e-08 4.6121e-10
8.6746e-08 5.84323e-08 -1.66166e-11
8.42738e-08 5.97632e-08 8.21707e-10
8.19616e-08 6.1465e-08 -3.53126e-10
5.04276e-08 7.49834e-08 1.02589e-11
-9.71947e-09 -8.08649e-09 1.34526e-09
-9.35755e-09 -5.91363e-09 1.11064e-09
4.73119e-08 7.60472e-08 -1.30018e-09
2.1948e-08 6.78616e-08 -7.94294e-09
-2.69177e-08 -4.81658e-08 -1.62382e-09
-3.97138e-08 3.64243e-08 3.2754e-09
-2.75498e-08 -4.85951e-08 -2.57154e-09
2.13962e-08 6.74623e-08 -7.24869e-09
7.90113e-09 7.37237e-08 -9.04828e-09
2.51118e-07 -8.34718e-09 2.3191e-08
2.55815e-07 -8.34319e-09 2.58461e-08
2.61201e-07 -1.01437e-08 2.47909e-08
-1.74909e-08 6.53384e-08 -1.60463e-08
-1.18043e-07 1.75891e-08 -2.54116e-08
-1.17123e-07 1.84525e-08 -2.5424e-08
-1.11674e-08 6.64255e-08 -1.56428e-08
-1.71395e-08 6.49827e-08 -1.78413e-08
-3.41257e-08 5.22517e-08 1.36664e-08
1.3825e-08 7.72864e-08 -7.15602e-09
1.48641e-07 2.84121e-08 1.59879e-09
1.50374e-07 2.82594e-08 1.63681e-09
5.35493e-08 -3.3855e-08 -9.22553e-09
5.76217e-08 -3.35965e-08 -8.79424e-09
3.11716e-08 6.68037e-08 -5.89575e-09
6.97136e-09 7.54609e-08 -8.30497e-09
-1.33266e-08 7.00318e-08 -1.35811e-08
-4.49974e-08 6.58602e-08 -8.42946e-09
-4.03089e-08 6.99581e-08 -6.41488e-09
-4.09166e-08 6.99432e-08 -7.8487e-09
6.00779e-08 -3.24632e-08 -1.29656e-08
6.43678e-08 -3.16677e-08 -1.24955e-08
-7.32256e-08 4.21054e-08 1.66596e-08
9.91764e-08 4.2279e-08 -1.68211e-08
9.74448e-08 4.15817e-08 -1.51125e-08
-1.11228e-07 -9.42732e-09 -5.96471e-09
-1.10949e-07 -8.89426e-09 -5.25079e-09
1.70888e-08 6.93433e-08 -8.60821e-09
7.50099e-09 6.87812e-08 -1.08964e-08
-1.2159e-07 1.68621e-08 -2.3638e-08
-1.21841e-07 1.5581e-08 -2.22752e-08
1.42617e-08 6.76387e-08 -1.0244e-08
-2.46299e-08 6.24966e-08 -1.94191e-08
-1.06781e-07 -9.86561e-09 -7.23811e-09
-2.2003e-08 6.41534e-08 -2.02019e-08
-1.2232e-07 -3.48049e-09 -1.21892e-08
-1.22805e-07 -3.11335e-09 -1.23582e-08
-2.40229e-08 6.30774e-08 -2.12778e-08
4.86154e-10 2.70788e-08 -5.66761e-09
-2.42958e-09 2.31992e-08 -4.33361e-09
1.02816e-07 4.76454e-08 9.46446e-09
1.06378e-07 4.79056e-08 8.56104e-10
1.07775e-07 4.70082e-08 1.7015e-09
3.26598e-08 7.53997e-08 -2.97323e-09
-3.4087e-08 5.48914e-08 1.34243e-08
-3.37624e-08 5.40787e-08 1.43374e-08
5.822e-08 6.61042e-08 6.5835e-09
6.77896e-08 6.29901e-08 7.99017e-09
6.54411e-08 6.44229e-08 7.01678e-09
1.63539e-08 6.21693e-08 -2.51148e-09
2.02906e-08 6.44138e-08 -4.02114e-09
4.35119e-08 6.49965e-08 -9.20191e-10
1.06627e-07 3.21401e-08 -2.99391e-08
1.36182e-07 3.74221e-08 1.50441e-08
1.35109e-07 3.71397e-08 1.27273e-08
4.31458e-08 6.35567e-08 -2.56703e-09
4.55831e-08 6.31514e-08 -2.04889e-09
6.88659e-08 5.84543e-08 2.78257e-09
2.43456e-07 -6.62832e-09 1.94099e-08
2.41763e-07 -5.2208e-09 2.15898e-08
-7.36855e-08 4.1389e-08 1.60569e-08
4.67509e-08 6.49458e-08 -4.66865e-10
-1.99309e-08 2.80547e-08 -1.50863e-09
3.39093e-08 6.23098e-08 -8.04914e-09
2.77604e-08 6.48059e-08 -7.39109e-09
6.27346e-08 6.85101e-08 6.39394e-09
6.12592e-08 6.61307e-08 6.53667e-09
5.13601e-08 7.03945e-08 3.42656e-10
-4.70485e-08 5.53652e-08 -2.73168e-08
-1.57938e-08 6.89435e-08 -2.32704e-08
-3.99868e-08 7.14486e-08 -2.04074e-08
-4.00188e-08 6.95743e-08 -2.07966e-08
1.7013e-07 1.17854e-08 -2.85335e-08
1.63176e-07 1.51528e-08 -3.1953e-08
-7.83734e-08 -2.97255e-08 -7.98742e-09
-7.50046e-08 -3.06224e-08 -8.36187e-09
7.02249e-09 -5.14738e-08 4.62575e-09
7.01797e-09 -5.17384e-08 5.45575e-09
-7.49259e-08 3.42677e-08 7.22506e-09
-7.53095e-08 3.44531e-08 5.14609e-09
1.4744e-07 2.95974e-08 1.16782e-09
1.45995e-07 2.96846e-08 1.13089e-09
-1.60822e-08 6.94548e-08 -2.20536e-08
-9.48667e-08 2.77025e-08 1.22327e-08
1.27635e-08 7.91606e-08 -8.43675e-10
2.01522e-08 7.98861e-08 -1.37905e-09
-9.46026e-08 -1.76982e-08 -6.98448e-09
-9.54017e-08 -1.70929e-08 -7.03449e-09
-4.60158e-08 5.57918e-08 -2.55889e-08
1.07072e-07 3.02126e-08 -2.86725e-08
1.99328e-08 7.30387e-08 -6.0878e-09
2.85888e-08 7.25137e-08 -5.65114e-09
1.80768e-07 1.85158e-08 1.18652e-08
1.79416e-07 1.91994e-08 1.10895e-08
5.95531e-08 6.30223e-08 1.89269e-09
6.41514e-08 6.09892e-08 1.37197e-09
-3.32292e-08 -5.1656e-08 -2.47173e-09
-3.49669e-08 -5.07139e-08 -3.46796e-09
1.75297e-07 1.50627e-08 -1.46991e-08
1.77846e-07 1.36534e-08 -1.33149e-08
-2.2765e-08 5.61777e-08 1.13818e-08
-2.53647e-08 5.35112e-08 1.18806e-08
-4.71275e-08 5.28499e-08 -2.59694e-08
-6.5975e-08 -3.04415e-08 -6.27862e-10
1.16273e-07 4.11051e-08 -5.35846e-10
1.10013e-07 5.56677e-08 1.82111e-08
-1.14652e-07 1.5357e-08 4.11306e-09
-1.15456e-07 1.50483e-08 3.85432e-09
-5.41863e-08 -9.20309e-09 -3.34144e-10
-4.04145e-08 7.03159e-08 -2.22341e-08
-4.6734e-08 6.94026e-08 -2.36769e-08
1.82832e-09 6.22986e-08 4.69118e-09
1.78382e-09 5.9406e-08 5.76812e-09
1.1037e-07 5.67895e-08 2.04713e-08
1.68055e-08 -5.90786e-08 4.87692e-09
2.15487e-08 -5.91485e-08 4.92064e-09
1.57765e-08 7.2905e-08 9.32972e-10
-6.55505e-08 -3.03506e-08 -7.33262e-10
-6.676e-08 -2.95734e-08 -5.88177e-10
1.26101e-07 3.69541e-08 -5.84739e-10
1.27106e-07 3.63957e-08 -1.49474e-09
4.46321e-08 5.53197e-08 -5.83854e-09
4.55724e-08 5.59273e-08 -7.15508e-09
2.11963e-08 5.9455e-08 6.57553e-10
2.45647e-08 5.81116e-08 2.13194e-10
9.90154e-09 6.49152e-08 2.76167e-09
6.89126e-09 5.17879e-08 8.66161e-09
5.9537e-09 6.28678e-08 4.22836e-09
9.81013e-08 4.89626e-08 7.37795e-09
9.67662e-08 4.85493e-08 5.43822e-09
1.04725e-07 4.5578e-08 5.15841e-09
1.00717e-07 4.70046e-08 6.34013e-09
1.51303e-07 4.76576e-08 3.2832e-08
1.47805e-07 5.04002e-08 3.34607e-08
-8.87031e-08 -2.45918e-08 -3.45666e-09
-3.68447e-08 -1.02861e-09 -3.14383e-09
-8.80313e-08 -2.50149e-08 -4.04235e-09
1.79436e-07 1.86616e-08 9.85326e-09
1.82604e-07 1.73601e-08 7.50878e-09
1.00361e-07 4.16924e-08 -1.2323e-08
1.06494e-07 3.93429e-08 -1.07875e-08
-7.65492e-08 -3.35598e-08 -6.2197e-09
-7.25835e-08 -3.51989e-08 -6.58279e-09
-7.56783e-08 -3.46111e-08 -6.23334e-09
2.88711e-08 -4.4955e-08 1.08441e-08
2.90499e-08 -4.4507e-08 9.85089e-09
3.04839e-08 -4.45871e-08 1.07655e-08
-1.28913e-08 6.1573e-08 7.4852e-09
-1.22117e-08 -5.63986e-08 7.20076e-10
-7.30402e-09 -5.84336e-08 1.82649e-09
-8.29337e-09 -5.8381e-08 1.37453e-09
-7.01227e-08 -2.57635e-08 -5.89481e-09
-7.29849e-08 -2.66812e-08 -6.97034e-09
-7.25977e-08 -2.65415e-08 -6.32531e-09
-7.24031e-08 4.2733e-08 -3.02941e-08
1.17278e-07 3.98387e-08 -2.4509e-09
-7.18675e-08 4.17762e-08 -3.1274e-08
-9.91685e-08 2.56478e-08 1.16749e-08
1.00126e-08 6.85943e-08 -1.19052e-08
1.08173e-07 2.51433e-08 -2.62158e-08
9.79193e-08 2.76804e-08 -2.68751e-08
5.16047e-08 -3.52697e-08 -1.08959e-08
4.96999e-08 -3.50579e-08 -1.02894e-08
2.44438e-07 7.91821e-09 4.35547e-08
2.38836e-07 1.0507e-08 4.54985e-08
1.34393e-08 7.10253e-08 -9.9687e-09
1.3338e-08 6.7276e-08 -1.09387e-08
7.21865e-08 4.90048e-08 -7.03383e-09
9.50951e-08 4.32115e-08 -6.72478e-09
7.28527e-08 4.97742e-08 -8.60749e-09
7.16307e-08 4.90118e-08 -6.60721e-09
2.10441e-08 -4.70871e-08 -5.75578e-09
1.74508e-08 -4.62169e-08 -5.36312e-09
1.3293e-07 3.50405e-08 1.91992e-09
1.34457e-07 3.50105e-08 3.22459e-09
1.35699e-07 3.38623e-08 2.03215e-09
2.25941e-08 6.84564e-08 -6.32606e-09
1.22062e-08 6.9483e-08 -9.06762e-09
-7.91391e-10 3.41719e-08 5.64431e-09
8.86772e-08 4.49242e-08 -6.65883e-09
-3.28788e-08 -7.641e-09 -2.48804e-09
1.57262e-08 6.84347e-08 -7.35895e-09
1.73002e-08 -3.94628e-08 -7.43013e-09
2.02091e-08 -3.84389e-08 -8.01934e-09
2.04587e-08 -3.76612e-08 -7.37904e-09
1.59267e-07 2.32165e-08 -1.65624e-09
1.61328e-07 2.26131e-08 1.1285e-10
1.62427e-07 2.20172e-08 -8.14093e-10
4.31464e-08 -4.32263e-08 1.19492e-08
3.92108e-08 -4.34795e-08 1.19632e-08
3.82642e-08 -4.40189e-08 1.14011e-08
1.15314e-07 4.18423e-08 4.55321e-09
1.16598e-07 4.11337e-08 5.10636e-09
-9.1262e-08 2.06801e-08 -1.83623e-08
-9.37104e-08 2.06388e-08 -1.93669e-08
1.1963e-07 3.98963e-08 3.85384e-09
1.34702e-07 -3.33192e-08 3.76849e-08
-1.16964e-07 1.05696e-08 -2.02557e-08
-1.17928e-07 9.10857e-09 -1.92939e-08
1.24406e-07 -3.18324e-08 3.26333e-08
1.27058e-07 -3.28591e-08 3.52007e-08
1.1061e-07 4.82506e-08 1.52599e-08
1.14204e-07 4.55705e-08 1.43086e-08
3.78266e-08 7.81171e-08 1.97642e-08
1.18776e-07 4.52319e-08 1.51231e-08
-5.19513e-08 -3.89654e-08 -5.79263e-09
3.76343e-08 7.92583e-08 2.02852e-08
-4.97908e-08 -4.08055e-08 -5.94984e-09
-4.52076e-08 -4.0587e-08 -5.49283e-09
1.89019e-07 1.37736e-08 6.16546e-09
-6.80282e-08 4.40442e-08 1.67475e-08
-6.83677e-08 4.51285e-08 1.66484e-08