# vtk DataFile Version 2.0
S, Created by Mohamad Ibrahim Cheikh
ASCII
DATASET UNSTRUCTURED_GRID
POINTS 10490 double
-223.577 20.3383 -34.7914
-223.732 23.2833 -32.7642
-130.494 -29.3212 69.2781
-194.385 -37.8826 -41.0223
-207.477 29.5025 40.042
-235.881 27.3945 13.4743
-191.276 -39.7124 -41.0808
14.4421 -3.1761 87.7974
-191.089 39.2073 -41.6684
-193.431 36.9199 -42.428
-251.147 3.2111 -3.3801
-251.007 5.4614 -0.714548
-204.328 29.2925 -42.1244
18.649 -1.59058 87.7433
-201.232 30.3615 -43.1792
-151.397 68.7284 -14.6347
-148.626 69.9356 -12.1887
241.381 21.7602 -11.7088
240.378 24.3442 -8.7825
40.2802 72.8003 -47.3864
44.0865 72.0936 -48.0473
45.4967 -3.24014 -86.4874
49.3515 -1.54063 -86.2754
-145.563 -45.4986 -55.4954
-142.059 -46.9236 -55.4204
-191.797 -27.3673 49.9127
-189.472 -30.0451 49.4579
-64.339 -67.839 51.3329
-66.4777 -66.0186 53.3338
-121.233 -41.6834 -64.862
-205.502 44.6019 24.1719
-208.44 41.8656 25.9231
-64.8779 -22.6473 81.9498
-61.236 -23.9578 81.9203
44.3522 4.12659 86.5225
-201.399 -44.918 27.5758
-55.015 81.9156 -25.7541
-52.1504 81.4777 -27.7924
-109.542 -78.4118 -11.2477
-105.515 -79.2424 -10.0779
-195.509 42.633 35.3083
-200.947 -43.0035 30.838
-54.4345 -15.3782 84.5265
3.54622 8.20583 87.6078
226.255 36.0722 -13.2452
223.494 37.2783 -15.4584
-147.021 22.4049 -67.7912
-143.856 23.6472 -68.1996
-167.021 -43.0254 -49.7746
-163.502 -43.4804 -50.7987
-215.267 -7.16081 -44.9365
-215.168 -3.16512 -45.451
-105.652 -17.6619 77.881
-104.116 -21.1964 77.25
-247.959 -12.5244 7.7245
-247.222 -12.2256 10.5722
-226.225 -18.8478 33.512
-129.028 -40.8345 -63.5476
238.447 4.07536 -27.6832
236.191 2.11791 -30.159
30.7323 -3.79414 -87.2581
26.7554 -2.08014 -87.4759
-224.961 -22.5413 32.2492
-47.66 -75.8727 41.3429
-235.553 -26.7708 15.3058
-110.56 51.0738 -60.3237
-237.919 -25.2897 13.1985
-16.8309 -1.56991 -87.7887
-20.0235 -4.08753 -87.6254
25.3143 7.37977 -87.2415
27.4385 3.59851 -87.4007
25.4961 1.63273 -87.5314
45.9949 -6.3659 -86.2813
-242.159 -16.9756 16.6251
249.587 -5.3692 -9.40944
249.111 -2.3026 -11.8806
-169.147 48.1593 43.8392
30.4388 -13.5115 -86.3018
-165.523 47.9272 45.7454
-244.371 -14.4435 14.9725
243.986 6.92781 20.1941
244.544 3.56422 20.2422
-218.53 -34.253 26.9075
-142.146 -69.411 21.2685
-139.63 -70.7398 18.786
-221.096 -32.0566 27.0474
-157.971 -59.8004 33.3568
-205.042 32.4576 39.2844
-154.32 -61.3641 32.6009
21.3225 7.2866 87.3799
-119.108 18.4663 75.2735
-116.436 20.5427 75.2474
25.5783 -59.0353 64.6431
29.1137 -57.6656 65.6879
-134.645 54.9824 -50.0134
-136.967 52.5076 -51.8667
-177.1 57.9122 23.457
-176.719 59.3812 19.8601
-70.6614 64.8228 -54.136
-62.8004 16.9133 -83.517
-66.4115 16.9224 -83.1724
-67.1429 66.3445 -52.8249
124.479 57.7394 50.1308
121.047 58.3453 50.4571
-132.441 -69.8473 26.7929
-132.815 -68.0013 30.9867
-188.882 35.1104 46.2969
-185.134 37.2783 46.455
-232.727 13.1727 -30.6497
-61.1111 74.6335 41.4322
-62.3537 76.1703 38.2893
-231.928 16.7969 -29.6019
-175.272 -46.957 -42.1659
-178.796 -11.2361 60.8595
-181.802 -8.37802 60.2266
-195.832 53.7468 12.6511
-198.388 52.0597 14.6699
-195.137 -6.40585 -55.1455
-196.112 -2.36688 -55.0429
-155.763 25.009 64.4061
-159.485 22.4695 64.2264
-196.211 -54.5515 -7.39845
-193.182 -56.048 -5.79669
-91.73 75.0468 -32.8908
-87.7729 75.4323 -33.3279
-39.2308 -78.9683 -36.3261
-42.732 -77.6555 -38.6012
-35.7557 20.3302 -84.7004
-119.252 -59.0802 -50.1244
-116.057 -58.393 -51.8192
-103.566 -58.9138 54.4057
-107.461 -57.2239 55.2775
-176.123 46.8936 -41.8005
26.9032 13.8688 -86.3889
23.8312 15.7164 -86.1827
-175.615 44.587 -44.499
-89.4485 -39.6002 72.085
-93.3189 -38.4678 72.0975
-1.70619 -75.0139 -46.0061
2.63282 -75.2498 -45.6139
-158.024 -33.2005 -59.8702
-154.737 -36.6347 -58.9109
26.7034 72.4864 49.0145
29.0809 70.4447 51.7495
-166.628 38.791 53.2915
-169.032 36.4136 54.0368
126.654 60.2605 46.3546
125.024 62.2371 44.2361
55.9316 20.2496 83.3724
-158.166 12.6278 67.2441
-155.549 9.85196 68.4446
-44.8377 72.5187 -47.3171
71.057 53.022 -65.6849
-42.2934 74.2376 -44.8752
222.064 -27.8284 -30.5323
225.276 -26.0125 -29.2251
-17.7381 77.9606 -40.3439
-20.8885 76.9348 -42.0906
247.477 -7.06407 13.9944
245.671 -9.07241 16.5072
-182.899 19.8458 57.0492
-181.356 22.6878 56.5908
-56.317 68.0798 52.1617
-53.9863 69.9051 50.0045
-221.676 26.3857 -32.1172
245.289 -12.7014 14.7128
-123.341 -44.6632 -62.3432
-128.466 -46.9026 -59.3599
-126.786 -44.2476 -61.7909
-219.064 -11.0554 41.7909
-206.378 49.8739 -6.48308
-208.064 48.511 -9.51826
-173.564 -35.1413 53.1126
-196.135 -34.8663 -42.6449
-56.866 10.5666 85.0673
-100.326 80.5495 4.84507
-149.824 -21.4723 67.3403
-153.214 -21.7198 66.3193
-106.306 79.7117 2.54179
-104.032 79.9179 5.66623
-208.26 -1.82692 -49.3007
-211.703 -0.429448 -47.5048
8.12044 75.9469 -44.3621
9.56648 74.159 -47.2572
-24.7749 84.9328 -21.3372
-25.9516 83.8193 -25.2166
13.3516 73.9179 -47.5218
-209.323 34.9039 -34.0775
-209.443 37.4738 -31.1308
-243.671 12.2877 -17.9902
-206.009 40.0811 -30.6856
-237.953 16.7263 23.0658
-240.125 13.5328 22.3944
-198.677 34.6978 41.3207
-44.0981 -51.8654 -69.3966
-47.9426 -52.1852 -68.8426
-66.095 77.8429 -33.9063
-63.0327 78.8344 -32.2909
-198.916 37.6915 38.4587
-195.388 39.9797 38.362
193.195 51.8472 -22.0511
191.21 51.6113 -24.5779
-17.5954 71.4486 -51.0019
-15.8051 69.8508 -53.238
-160.726 -8.68434 67.1256
-158.275 -5.15003 68.1945
-159.182 -12.1875 67.0313
-155.591 -13.9556 67.7153
-181.219 -39.3698 -46.6195
-187.07 -34.8955 -47.348
234.201 -8.1983 31.0077
231.367 -8.83978 33.3481
-185.725 -37.8064 -45.7338
-220.423 -36.332 -21.8072
-223.2 -33.1949 -23.2993
-75.1613 69.3023 47.4294
-199.264 43.3592 -31.6662
-202.428 40.5053 -32.9615
-79.7445 71.7517 42.6279
-75.9926 71.4822 43.9008
-199.863 -47.1008 -25.1998
-196.405 -49.1628 -24.5818
-156.239 -38.5677 57.1658
-155.218 -34.6089 59.9711
-162.939 56.2382 -36.4806
-159.799 58.0681 -35.2954
245.94 -16.0779 8.95225
246.756 -13.0535 10.9094
-202.197 25.1196 -45.9087
246.469 -16.6406 5.45926
-222.674 -40.7298 -3.81009
-219.563 -42.6766 -4.53664
-225.918 36.4498 -12.9115
-224.094 36.2076 -16.8757
-228.901 -34.8682 10.6495
-231.376 -33.5775 7.89082
-225.472 -37.7615 9.6949
119.617 74.8203 19.8533
-172.164 -51.102 -38.7773
115.424 75.6338 19.8097
47.8993 12.1361 -85.5325
51.4884 10.7508 -85.4626
-180.223 -22.1807 57.2315
-179.977 52.3118 -32.2762
-165.46 0.843958 66.2686
-168.583 2.81987 65.2422
-181.023 -17.4233 58.5533
36.4529 -59.7576 63.3272
37.7868 -57.211 65.5446
-159.985 -59.9395 -31.9
-182.768 -21.7992 -56.3835
-184.316 -18.0326 -57.0926
-11.9729 14.8633 -86.6345
-188.59 -54.998 19.1009
-192.466 -53.1212 19.6698
-145.958 9.32138 -71.0554
-143.752 12.1174 -71.1842
-174.402 52.3983 35.7009
-173.454 50.7008 38.5999
-187.199 39.6979 -43.3324
-231.504 33.4911 -7.79779
-229.098 35.9657 -4.96061
-234.908 30.8675 -5.93747
241.404 7.72059 23.4443
239.892 10.8364 24.102
240.61 13.4015 21.8298
-138.88 -61.8306 -39.4915
-138.123 -60.1636 -42.292
-141.497 -58.2522 -43.5828
-200.351 -41.1655 -33.6898
-218.718 20.1121 -38.5061
-52.7319 8.93065 85.5792
-56.68 -81.1833 27.5672
-60.1944 -81.461 25.7777
-152.622 56.1683 41.6809
-153.453 58.032 38.6436
-189.415 -9.90222 -57.0382
-186.069 -8.88225 -58.5352
64.908 -8.71809 84.5706
67.8928 -7.09139 84.4356
-196.835 -37.2206 40.1891
-200.415 -34.611 40.3549
-180.668 -48.246 -37.6838
-174.532 -52.0917 -36.07
-215.619 -38.509 23.8557
-218.655 -36.4151 23.7598
-178.254 -50.9821 -35.421
-121.745 47.8558 -60.3257
-71.7838 59.158 60.112
26.8711 -68.3038 54.6826
24.8101 -66.5904 56.8715
-87.2099 -8.62062 -82.0886
-84.0286 -6.3189 -82.702
-37.5899 85.181 -17.7539
-40.7901 84.6179 -19.4961
-75.562 59.6772 59.022
-117.805 48.8362 -60.4974
67.1071 -10.9806 -84.0956
63.3583 -11.5841 -84.3702
-122.439 44.6505 -62.5696
-76.7325 63.6009 -54.5717
-80.1728 63.9124 -53.5935
-210.937 -46.4386 -11.8322
-207.91 -47.2776 -14.7159
-70.3817 -66.9064 51.5855
-82.9579 61.4403 -55.9153
181.008 57.5717 -20.4498
187.796 54.7413 -20.7272
-57.9795 -57.7734 -63.2034
-60.2441 -59.9519 -60.8722
185.033 56.5045 -18.9615
-52.2299 4.82803 85.9459
170.803 -60.94 -21.4144
166.657 -61.8364 -22.7989
-242.16 -11.2313 20.9366
-241.443 -7.71483 23.3968
231.623 25.8607 -22.5155
229.371 25.1798 -25.8605
225.985 27.6871 -26.9258
-235.384 -18.9703 -24.5114
-234.85 -16.6288 -26.7371
-226.071 27.1579 -27.3722
-222.955 28.459 -29.1236
-220.771 31.3731 -28.151
-250.634 -7.29632 -0.178264
-176.064 45.2981 43.5535
58.741 51.1984 -68.5586
59.7949 48.3675 -70.4758
128.127 68.3788 32.5338
131.617 68.3053 30.9439
-176.961 47.6016 40.5481
-181.061 46.7496 39.3045
18.7051 -86.4181 15.267
142.044 69.3648 -21.5016
141.114 68.395 -25.0633
23.2386 -86.1703 15.892
181.098 -44.0246 42.3148
25.6369 -86.6618 12.3797
-189.029 21.6349 -53.8632
-189.449 17.8891 -55.0441
-212.326 -45.0148 14.0791
-120.855 -47.0075 -61.2054
-24.3194 -37.2776 79.2589
52.3478 18.4933 -84.0625
55.8603 16.7083 -84.1594
-25.2882 -41.1262 77.2939
-119.135 -6.55461 -77.2227
-115.757 -7.77141 -77.7373
-200.054 16.4633 50.7255
-215.148 -43.2647 14.3196
-153.456 32.9919 61.4202
-156.887 31.3266 61.2307
-157.692 28.1735 62.4964
-79.9671 -83.431 0.603141
-64.0079 72.2397 -44.9869
-63.0925 70.2208 -48.2254
-79.8046 -83.3553 -4.02083
-209.642 -18.6829 44.8795
-61.0623 70.834 47.6451
-205.671 -19.6763 46.6685
-191.284 -46.3889 33.3528
-190.154 -45.0081 35.9354
-195.138 47.3178 29.0345
-192.217 -42.6385 37.4498
-97.7294 19.6883 78.6577
-94.1682 20.9452 78.8646
-195.846 -41.8734 35.9821
-247.679 -8.81317 12.483
188.065 -42.022 40.5952
184.93 -44.2656 39.9693
-127.324 75.4748 7.92324
-123.734 75.991 9.74498
48.9095 1.66002 86.304
130.449 15.586 -73.6049
-179.753 46.506 -40.3153
198.596 13.1791 52.3603
200.491 9.43232 52.2854
113.382 74.8955 23.6805
109.646 75.3381 24.4186
149.579 63.7387 -30.6941
145.753 65.3517 -29.5337
-166.874 -45.6715 -47.4217
129.851 19.35 -72.8371
-209.812 43.7046 -21.081
-206.951 46.1275 -19.3054
126.476 20.202 -73.3311
-61.9033 -0.411268 85.2917
-59.2137 2.52504 85.4889
[...]
POINT_DATA 10490
VECTORS F double
1.42454e-12 1.23877e-12 -1.06906e-12
4.2667e-12 2.30489e-12 -1.06385e-12
3.45374e-10 5.21608e-10 2.99699e-10
4.26597e-12 -2.30896e-13 -2.11626e-12
1.27942e-11 5.14608e-12 4.24756e-12
1.41585e-12 1.17875e-12 6.97751e-13
6.27753e-12 1.77934e-12 -4.73207e-12
-4.80079e-08 2.98605e-07 1.17517e-08
1.06591e-10 2.66482e-11 -3.44718e-11
8.55783e-11 2.59397e-11 -2.49951e-11
6.90359e-15 -2.18989e-16 3.84585e-16
5.72175e-15 4.79091e-15 -2.67523e-15
1.56253e-11 9.72622e-12 -2.49563e-12
-1.01804e-07 5.33267e-07 1.22963e-08
1.84816e-11 6.08121e-12 -6.74973e-12
4.25449e-10 2.48808e-11 -4.22723e-10
5.7981e-10 6.17968e-11 -5.13115e-10
-2.38618e-10 3.66481e-10 8.29159e-11
-3.11965e-10 4.17581e-10 1.17475e-10
-2.69854e-05 6.25153e-06 6.79691e-06
-2.49968e-05 7.43223e-06 8.34502e-06
-5.11316e-07 3.769e-07 -4.70356e-08
-4.74404e-07 3.54282e-07 -3.95287e-08
6.80922e-11 4.68426e-11 -6.01509e-11
1.06589e-10 8.20291e-11 -1.02675e-10
8.3494e-12 1.08409e-11 9.71983e-12
9.50521e-12 7.43213e-12 8.35619e-12
6.17213e-11 4.83325e-10 6.48226e-10
-1.60204e-10 5.02665e-10 5.97979e-10
7.5854e-10 2.05738e-10 -3.0532e-10
1.5636e-11 4.61499e-12 8.66497e-12
1.04786e-11 3.19463e-12 5.73317e-12
1.32192e-08 2.61085e-08 8.49419e-09
1.20329e-08 1.63111e-08 5.86927e-09
-2.53973e-07 6.21344e-07 -1.37232e-08
1.41505e-12 1.05349e-12 1.60384e-12
1.5858e-08 -5.84955e-09 -2.27488e-08
5.09147e-09 -1.29489e-08 -3.91272e-08
1.67933e-11 7.11244e-13 -2.81707e-11
1.77629e-11 -7.14911e-13 -1.73327e-11
3.55229e-11 4.63543e-12 1.82521e-11
1.42702e-12 3.50047e-13 2.01752e-12
2.69593e-08 4.22877e-08 9.81545e-09
3.01574e-08 4.47787e-07 -4.21119e-08
-1.01803e-09 7.52951e-10 -7.04734e-11
-1.68567e-09 1.48177e-09 5.97833e-10
1.48921e-09 1.53609e-10 -3.4426e-10
1.51622e-09 6.60923e-10 -1.61342e-10
9.01108e-12 9.59857e-12 -1.23899e-11
1.27884e-11 1.61901e-11 -1.88326e-11
1.4278e-12 1.98036e-12 -1.77855e-12
4.26002e-12 2.62816e-12 -2.48299e-12
4.39247e-09 4.98055e-09 1.85802e-09
4.45078e-09 4.34294e-09 1.92511e-09
2.92818e-15 2.67842e-15 -1.54545e-15
9.82468e-15 2.61883e-15 -2.36126e-15
1.42216e-12 8.87769e-13 2.02911e-12
3.6993e-10 7.47893e-11 -1.3963e-10
-1.8625e-10 1.5025e-10 -1.73569e-10
-2.34087e-10 1.74274e-10 -2.11169e-10
-2.08264e-07 5.73519e-07 -3.38905e-08
-1.86096e-07 7.48327e-07 -2.47359e-08
1.41417e-12 7.84407e-13 1.29325e-12
5.67143e-11 1.51827e-10 2.87283e-10
2.69353e-14 1.77051e-13 2.66311e-13
2.89234e-08 7.64178e-10 -5.84022e-09
2.32236e-13 1.77959e-13 8.8897e-14
1.12732e-07 4.17651e-07 -1.00949e-08
1.69461e-07 3.04416e-07 -1.89258e-08
1.89114e-07 1.64843e-06 1.46193e-07
-5.11967e-07 1.20711e-06 3.00497e-08
-1.65945e-07 8.00772e-07 9.04929e-09
-1.48786e-07 4.1495e-07 -4.03119e-08
3.30312e-13 1.77528e-13 1.76658e-13
4.26837e-12 5.79301e-11 -1.67457e-11
-1.27962e-11 5.33467e-11 -4.27809e-11
1.26512e-10 -3.00977e-11 9.32151e-11
1.2832e-07 2.47584e-07 -3.32064e-08
1.68032e-10 -6.06114e-12 8.06585e-11
1.69897e-14 5.78311e-14 6.18977e-14
-5.06819e-11 7.69936e-11 4.90721e-11
-2.13189e-11 6.56572e-11 1.89953e-11
1.4147e-12 3.55595e-13 6.64599e-13
7.37142e-12 2.12318e-12 1.31081e-11
5.60387e-12 7.20358e-13 8.37884e-12
-1.96122e-13 3.55547e-13 5.38951e-13
9.95455e-12 4.62103e-12 1.40363e-11
1.39652e-11 6.03536e-12 4.43407e-12
1.27954e-11 5.2377e-12 1.74117e-11
2.18652e-07 8.32844e-07 -7.60146e-08
5.77341e-09 2.34576e-09 5.42152e-10
6.38563e-09 2.48236e-09 5.30813e-10
1.89186e-09 6.93902e-09 6.24378e-09
2.79849e-10 1.14245e-08 1.00116e-08
4.2217e-09 5.29007e-10 -8.09063e-10
4.97591e-09 -5.92175e-11 -1.66762e-09
5.25731e-11 1.24459e-11 1.76825e-11
8.38546e-11 2.7149e-11 1.15536e-11
1.10258e-07 -3.06579e-08 -5.43212e-08
8.85236e-08 -1.77337e-08 -1.17359e-08
8.14676e-08 -1.67335e-08 -1.13634e-08
1.32746e-07 -4.46963e-08 -7.6785e-08
-3.91155e-07 1.49443e-07 -5.32803e-08
-4.29653e-07 1.90711e-07 -9.44057e-08
1.26203e-11 4.88534e-12 1.82524e-11
2.03522e-11 6.39122e-12 2.38959e-11
9.24368e-11 1.3876e-11 3.5896e-11
1.06823e-10 1.31468e-11 4.22799e-11
1.42232e-12 4.43584e-13 -5.30143e-13
-1.2815e-09 -1.88406e-08 3.37017e-08
9.46374e-09 -1.3773e-08 2.92824e-08
1.42354e-12 8.33976e-13 -5.36449e-13
5.00598e-12 2.93309e-13 -3.20105e-12
9.23702e-11 4.57221e-11 4.13644e-11
5.56775e-11 1.82269e-11 2.34849e-11
1.94931e-11 8.89136e-12 -5.19585e-13
1.84789e-11 8.15942e-12 1.90488e-12
9.95257e-12 4.36827e-12 -4.88231e-12
1.30287e-11 7.76815e-12 -6.7333e-12
5.14731e-10 4.47065e-10 -2.06983e-11
5.76557e-10 1.99596e-10 1.05617e-10
5.04748e-13 3.53687e-13 -1.10493e-13
1.39333e-13 -1.73503e-14 -4.44017e-14
1.24555e-08 -2.40817e-09 -9.74413e-09
1.30461e-08 -6.49057e-09 -1.88933e-08
4.34596e-11 2.85095e-10 -6.2649e-10
1.02798e-10 3.94929e-10 -8.08968e-10
7.48776e-07 5.32959e-07 8.9249e-08
2.7725e-10 1.23288e-10 -2.25846e-10
2.83736e-10 1.79414e-10 -2.80262e-10
2.61142e-10 2.34326e-10 3.14623e-10
2.27075e-10 2.82615e-10 3.46561e-10
3.37875e-10 5.3396e-11 -1.14705e-10
4.28561e-07 1.81511e-06 3.07793e-07
-2.72727e-08 1.23683e-06 2.247e-07
1.95038e-10 -2.80773e-11 -1.22921e-10
2.18996e-09 2.34853e-09 1.62225e-09
1.86892e-09 2.35245e-09 1.55059e-09
-2.47457e-10 1.32678e-09 -2.16177e-09
-1.39106e-10 8.60868e-10 -1.42149e-09
7.2584e-11 6.59646e-11 -6.03443e-11
5.67598e-11 4.07175e-11 -4.36876e-11
-2.71879e-05 2.56103e-05 -3.60624e-05
-3.12614e-05 2.42831e-05 -3.09059e-05
6.13638e-10 7.56975e-11 1.79454e-10
4.46659e-10 1.43349e-10 7.42439e-11
-2.26402e-07 8.81201e-08 -3.88934e-08
-5.24104e-07 5.44803e-08 1.04622e-07
-1.04236e-07 2.5579e-07 -5.36054e-08
4.93838e-10 2.14489e-10 1.01613e-10
3.6881e-10 -4.1778e-12 1.03037e-10
5.33598e-08 -1.6531e-07 -2.59532e-07
-2.82078e-06 2.09287e-06 1.31597e-06
-8.07284e-08 -9.86698e-08 -1.53907e-07
-3.28433e-11 4.09068e-11 -6.75139e-11
-1.90913e-11 3.12212e-11 -4.65048e-11
-8.56196e-17 3.07364e-15 -1.59058e-15
5.04133e-16 -1.5166e-14 8.29722e-15
-1.42257e-12 1.64717e-11 1.21226e-11
-4.27382e-12 1.37355e-11 1.6561e-11
9.35859e-11 3.85641e-11 2.31918e-11
1.03753e-10 4.93037e-11 2.10969e-11
5.69206e-08 -7.39359e-08 1.04015e-07
1.47705e-08 -4.94599e-08 7.10918e-08
6.16791e-12 2.42334e-12 -2.5006e-12
-4.26203e-12 8.11568e-12 1.51793e-11
5.34312e-10 2.61013e-10 -3.16202e-10
2.25829e-10 1.31767e-10 -1.63159e-10
4.70257e-10 5.64959e-11 -1.58798e-10
3.61156e-12 2.39331e-12 2.47985e-12
1.16543e-11 5.33732e-12 -1.28669e-12
1.28018e-11 6.02959e-12 -5.23492e-12
2.69953e-11 1.30487e-11 1.924e-11
4.4554e-12 1.06827e-12 -3.91334e-12
1.04929e-07 5.40806e-08 1.85918e-09
3.71881e-09 5.47917e-10 2.99773e-10
1.12267e-10 1.17421e-10 6.75709e-11
8.41974e-11 1.24032e-10 6.46653e-11
3.02613e-09 5.65801e-10 -2.27399e-09
2.87239e-09 5.79165e-10 -1.72566e-09
4.2706e-12 3.02961e-12 -3.00652e-12
4.26837e-12 3.38474e-12 -2.48145e-12
4.57628e-06 4.65276e-05 7.97593e-05
3.20954e-06 4.74072e-05 7.4476e-05
0 0 0
1.25266e-16 -3.30462e-15 9.94178e-16
1.58218e-06 2.11986e-05 3.30293e-05
1.84774e-11 6.04066e-12 -8.22364e-12
2.81086e-11 1.24289e-11 -8.6999e-12
1.42149e-12 6.20063e-13 -3.90375e-13
3.2685e-11 1.32238e-11 -9.77109e-12
1.42281e-12 8.88983e-13 1.76385e-13
1.41125e-12 6.93981e-13 1.83729e-13
3.04343e-11 -8.88401e-12 2.56716e-11
7.01075e-09 5.6696e-09 -4.78161e-09
6.23182e-09 6.05223e-09 -5.1178e-09
1.43087e-08 -1.1603e-08 -3.00479e-08
1.34611e-08 -8.89354e-09 -2.49259e-08
3.83648e-11 -1.56978e-12 2.54341e-11
4.18738e-11 2.48599e-12 2.38169e-11
-1.19294e-08 6.08852e-09 1.53233e-09
-1.46691e-08 7.59243e-09 1.98245e-09
-3.39724e-16 1.12676e-14 -8.0431e-15
5.32685e-05 7.99501e-06 8.55374e-06
3.41151e-10 2.03751e-10 1.25794e-10
5.56278e-10 1.06092e-10 1.65661e-10
1.41269e-10 7.77437e-11 5.47291e-11
2.13534e-10 1.66367e-10 9.45094e-11
1.28014e-11 6.06174e-12 -1.19802e-11
1.3165e-11 3.93082e-12 -1.02629e-11
-2.41633e-11 5.55073e-11 3.67706e-11
-3.303e-11 8.52802e-11 5.1349e-11
1.00049e-11 1.78201e-12 -7.45727e-12
-3.53969e-13 3.54067e-13 -1.77561e-13
6.42137e-13 3.55109e-13 -1.7701e-13
3.7165e-08 -1.51087e-08 2.92812e-08
4.79543e-11 1.9861e-11 -1.01221e-11
4.0955e-11 1.81166e-11 -7.90977e-12
2.44617e-08 -8.09629e-09 1.92262e-08
2.26453e-08 -1.51503e-08 2.94632e-08
1.16176e-13 3.58932e-13 -9.37562e-13
9.81495e-13 3.52674e-13 -5.35044e-13
6.11125e-11 6.53949e-11 6.43573e-11
1.18549e-10 6.34022e-11 7.42585e-11
3.77098e-10 3.94094e-11 -1.46029e-10
5.38322e-10 2.44934e-11 -2.57595e-10
4.2599e-12 1.20401e-11 7.56658e-12
1.42469e-12 1.6238e-11 1.21672e-11
2.3846e-11 1.00158e-11 -6.75975e-12
4.26435e-12 9.79068e-12 3.34764e-12
-2.78818e-14 -3.4573e-15 2.21943e-14
6.27137e-15 -2.86306e-14 4.44419e-14
4.25731e-12 2.48824e-12 -1.6888e-12
7.07576e-12 3.20744e-12 -1.80111e-12
1.78425e-13 3.54812e-13 9.93498e-14
3.53044e-13 3.55052e-13 8.26685e-14
3.73114e-13 3.55124e-13 8.87688e-14
-1.1016e-06 1.73285e-07 1.59168e-07
7.10587e-12 -1.56e-12 -1.73358e-12
-1.1639e-06 2.1804e-07 -2.68045e-09
2.00852e-07 5.95014e-07 9.82398e-08
1.64263e-07 3.74405e-07 5.92395e-08
3.39248e-11 3.57257e-11 2.67368e-11
1.78302e-10 8.58892e-12 -1.08365e-10
2.11131e-10 1.37622e-12 6.4653e-11
2.00512e-10 4.21249e-11 6.18085e-11
5.80358e-11 4.57057e-11 3.51811e-11
-3.38615e-10 7.47303e-09 7.07439e-09
-3.23249e-10 8.57287e-09 7.50391e-09
1.06247e-11 -6.30921e-14 -6.93345e-12
1.56285e-11 1.23732e-12 -6.33639e-12
2.69942e-11 8.34116e-12 -1.3156e-11
7.85767e-07 1.29341e-06 2.08648e-07
1.41402e-12 3.47052e-13 1.60311e-12
7.4279e-13 3.51431e-13 8.93405e-13
1.24155e-09 5.03674e-10 -2.45438e-10
1.62682e-09 4.38922e-10 -3.26759e-10
1.46377e-10 3.59614e-11 3.37901e-11
1.77644e-10 3.38967e-11 5.32738e-11
1.26813e-10 5.65034e-11 -1.55821e-11
1.43372e-12 2.30676e-12 -7.57639e-13
1.42733e-12 1.97288e-12 3.01313e-15
1.41933e-12 1.62026e-12 -1.3134e-12
-7.0039e-11 1.3186e-10 4.55056e-11
-8.24225e-11 1.61737e-10 2.7529e-11
-1.07272e-10 2.04396e-10 1.93645e-11
4.69935e-11 8.35549e-12 -3.3962e-11
6.11066e-11 1.07946e-11 -3.92046e-11
5.91762e-11 2.23832e-11 -5.35022e-11
1.41794e-12 1.0251e-12 -1.79153e-12
4.27158e-12 3.43954e-12 -1.77113e-12
1.44977e-07 1.26518e-07 -2.27716e-09
6.02075e-11 4.76036e-11 1.54099e-10
5.00173e-11 3.62286e-11 1.28046e-10
4.52893e-10 -1.97182e-10 4.68025e-10
6.0513e-10 -6.5725e-11 3.93121e-10
2.19128e-11 1.29016e-11 -1.17077e-11
2.76539e-11 9.24494e-12 -1.24436e-11
5.44462e-08 1.17966e-07 7.03506e-09
3.0366e-08 1.93263e-07 1.32276e-08
4.26009e-12 1.77633e-12 3.91117e-12
1.87054e-12 2.40089e-12 3.51239e-12
4.26314e-12 1.47117e-12 -3.90264e-12
4.26307e-12 3.64531e-13 -2.48683e-12
1.41595e-12 3.5426e-13 5.34429e-13
-8.22385e-15 3.52884e-13 5.33328e-13
1.42537e-12 3.62793e-13 -2.48637e-12
1.49346e-08 1.79437e-09 -2.26462e-09
5.74328e-08 -2.09056e-08 2.89643e-08
4.99238e-10 3.87405e-09 4.80845e-09
-6.27993e-10 3.82033e-09 4.5059e-09
1.47161e-08 1.02806e-08 -2.99186e-09
1.48826e-08 1.28276e-08 -2.82898e-09
-1.87945e-08 -2.26401e-09 -5.99014e-09
-1.47938e-08 -4.1149e-09 -1.40686e-08
5.40752e-08 -1.80623e-08 2.67332e-08
1.57835e-08 2.37946e-09 -1.84008e-09
-1.17949e-07 1.45115e-07 -3.04607e-08
-1.32154e-07 1.36693e-07 -3.09051e-08
1.03019e-08 1.15293e-09 -1.64357e-09
5.81169e-08 -1.38272e-08 -2.61124e-08
4.49687e-08 -3.23002e-08 -4.67467e-08
1.22722e-12 3.53455e-13 -8.86363e-14
-5.02326e-13 3.49441e-13 -2.66914e-13
-1.36191e-11 2.18168e-10 2.81041e-10
6.97695e-08 -5.02213e-08 -6.78466e-08
-3.94661e-08 1.34257e-08 -4.93101e-09
-2.74576e-08 1.22841e-08 2.01939e-09
-1.06886e-09 2.56015e-09 -2.21956e-09
1.80047e-10 1.44117e-09 -1.44061e-09
-3.51586e-08 1.3755e-08 -9.69481e-10
6.36702e-08 1.05505e-07 -1.19964e-09
-4.25914e-12 2.30824e-11 -7.02414e-11
-1.20425e-11 3.09148e-11 -9.45845e-11
1.56058e-13 2.6662e-13 1.7767e-13
1.41861e-12 3.13158e-13 1.77296e-13
-2.96715e-10 3.70492e-10 5.46852e-11
-5.2288e-10 5.88849e-10 7.68642e-12
-6.67564e-10 6.3736e-10 -2.79342e-11
1.88873e-13 1.77357e-13 -1.77674e-13
-4.20738e-14 1.78056e-13 -1.77014e-13
4.26798e-12 3.37218e-12 -1.23907e-12
4.27464e-12 2.66467e-12 -2.30477e-12
7.10432e-12 3.19333e-12 -2.52497e-12
3.04242e-15 1.0295e-15 -3.10259e-16
1.50119e-10 8.17311e-12 6.5845e-11
-1.39042e-06 2.20796e-06 1.50319e-06
-8.12908e-07 2.18654e-06 1.41636e-06
-4.32477e-07 8.97744e-08 1.97393e-08
-3.56955e-07 3.32971e-08 1.1228e-07
1.49995e-10 2.38054e-11 5.23071e-11
1.30658e-10 1.16493e-11 6.00454e-11
2.83387e-11 2.70213e-11 1.49302e-10
-2.18689e-07 7.30886e-09 -1.53175e-07
-3.95321e-07 4.70916e-08 -1.43886e-07
5.95187e-11 2.34316e-11 1.16727e-10
-1.26523e-10 1.28609e-10 2.00745e-10
2.66757e-11 1.0676e-11 6.84246e-11
4.76904e-11 4.17583e-11 -3.90443e-12
3.2527e-11 3.4967e-11 -1.77102e-12
1.42038e-12 3.54792e-13 4.43942e-13
6.78602e-10 2.81825e-10 -3.80471e-10
1.20155e-08 1.35193e-08 6.80704e-09
-3.3273e-07 8.22898e-07 1.55716e-07
-3.53401e-07 6.65621e-07 1.03463e-07
5.72704e-09 1.25085e-08 6.88223e-09
1.22333e-09 1.77756e-09 -3.81553e-10
1.71731e-09 2.45428e-09 -5.57779e-10
2.41601e-11 1.83188e-11 5.35417e-12
-7.70683e-13 3.53837e-13 2.66302e-13
7.99659e-10 5.69135e-10 -6.14662e-11
7.9708e-10 3.31173e-10 7.99972e-11
2.13929e-10 3.27159e-10 -8.14976e-11
2.01673e-12 -7.12102e-13 -1.52307e-11
2.23182e-08 -3.69593e-08 -6.32287e-08
5.99135e-08 -3.47446e-08 -6.01809e-08
6.39482e-12 6.86e-13 -2.11728e-11
4.26308e-12 1.95435e-12 3.20717e-12
3.94452e-08 -2.10447e-08 3.74707e-08
6.56486e-12 3.73149e-12 4.61949e-12
2.77758e-12 9.16519e-13 3.1942e-12
4.26349e-12 3.38703e-13 3.20615e-12
2.13151e-11 8.17877e-12 3.16155e-12
4.25667e-12 3.45895e-13 2.49245e-12
1.7022e-08 1.37776e-08 -8.61092e-10
2.3737e-08 2.1361e-10 3.41103e-09
1.56861e-12 1.06436e-12 3.13937e-12
3.02431e-17 1.04428e-15 9.88753e-15
-1.52956e-10 1.26594e-10 2.18076e-10
-1.28893e-10 5.9199e-11 1.38122e-10
6.73231e-10 1.52806e-10 -1.38277e-10
8.63501e-10 1.97514e-10 -2.02143e-10
-3.44972e-07 3.88906e-07 1.64271e-08
-3.61928e-08 8.25506e-08 9.64443e-09
3.18372e-10 7.58516e-11 -8.63314e-11
-2.92944e-09 2.84702e-09 6.41532e-10
-1.69006e-09 2.99494e-09 2.51265e-10
-9.58226e-07 1.17017e-07 1.91229e-07
-1.14219e-06 3.45853e-07 -4.3948e-07
-3.36211e-07 9.83348e-08 3.67409e-09
-4.15911e-07 6.17411e-08 -1.14565e-07
1.81667e-12 8.82602e-12 -9.58966e-12
-9.50849e-08 8.58236e-08 2.06484e-09
1.27936e-11 3.19706e-12 -9.08188e-12
1.76782e-11 4.62084e-12 -1.09984e-11
-1.02402e-07 1.0547e-07 7.45354e-09
5.3086e-08 6.812e-08 5.04006e-09
7.22487e-08 5.90815e-08 4.37466e-09
5.35352e-08 5.61036e-08 5.43768e-09
1.26554e-12 3.55345e-13 1.78118e-13
7.35358e-10 1.64129e-10 -1.53317e-10
9.21759e-10 2.08188e-10 -3.46129e-10
4.08648e-07 4.54541e-07 -6.40201e-08
-3.07575e-13 3.53469e-13 1.77923e-13
8.23256e-08 7.5084e-08 4.99831e-09
2.11855e-08 2.38747e-08 1.08106e-08
3.2543e-08 1.67763e-09 -4.44678e-09
6.796e-08 2.53051e-08 5.3739e-09
6.96353e-11 5.0603e-11 2.8067e-11
8.62057e-11 5.17496e-11 3.08944e-11
-1.47363e-08 2.52825e-07 2.49211e-08
1.43301e-08 1.49016e-07 1.50335e-08
1.56302e-11 6.06165e-12 3.68525e-12
1.63759e-10 6.30267e-11 5.32957e-11
2.48588e-10 3.16237e-11 -1.18819e-10
3.59899e-10 8.99017e-11 -6.73526e-11
-1.1309e-10 4.05954e-11 2.03245e-10
-1.15835e-10 2.50206e-11 1.67905e-10
3.83652e-11 7.82665e-12 -3.92677e-11
2.5044e-11 3.54861e-12 -2.19099e-11
9.20146e-11 1.30033e-10 2.25006e-10
7.48397e-11 7.7423e-11 1.65859e-10
7.1499e-11 1.03578e-10 1.96077e-10
4.26773e-12 1.82213e-12 3.77697e-12
7.11026e-12 3.19165e-12 3.13089e-12
9.9445e-12 3.91731e-12 3.99598e-12
7.08949e-12 3.27749e-12 -6.04437e-12
1.42327e-12 1.06591e-12 -1.77618e-12
1.18496e-09 1.63079e-09 -1.16755e-09
1.49373e-09 1.30381e-09 -9.95911e-10
2.40301e-07 7.83358e-07 -1.60135e-07
8.18812e-08 6.15287e-07 -1.30528e-07
1.42101e-12 3.56969e-13 -1.0661e-12
1.11493e-09 -7.17341e-11 -2.06812e-10
-2.99588e-10 2.23448e-10 2.3236e-10
1.41759e-12 7.823e-13 -1.23925e-12
7.39905e-08 4.06388e-07 -1.46296e-08
3.25353e-09 1.03995e-08 -7.82345e-09
2.32637e-09 1.17945e-08 -8.49437e-09
3.58295e-07 -2.3515e-07 -2.79128e-07
1.04617e-10 3.80117e-11 4.99985e-12
-1.07307e-10 -6.46878e-11 -4.97131e-09
2.62224e-11 5.75353e-11 -3.91202e-09
9.36556e-12 5.60928e-11 -5.30519e-10
-1.6641e-09 7.74622e-11 -3.02139e-09
1.13967e-10 4.22838e-11 2.09727e-11
3.27354e-07 -9.25592e-08 -1.32017e-07
3.06087e-07 -1.03061e-07 -1.32076e-07
1.4174e-12 3.52715e-13 -1.24663e-12
-3.55354e-12 2.15508e-12 -2.85824e-11
1.23471e-12 7.27046e-13 -2.59818e-11
1.41556e-12 1.05663e-12 -1.95829e-12
1.42082e-12 3.61845e-13 -1.24142e-12
9.94546e-12 6.36792e-12 -1.78351e-12
1.04457e-11 8.90028e-12 -3.54584e-13
-1.4573e-07 2.89046e-08 3.1187e-08
-1.62035e-05 6.49045e-06 -6.19724e-06
-1.18218e-05 1.31419e-05 -1.55373e-05
2.34164e-09 8.89399e-08 -2.45054e-08
1.23644e-10 5.2145e-11 -6.40141e-11
4.68976e-11 1.40699e-11 1.88442e-11
1.19466e-10 1.04889e-10 -8.13586e-11
1.39906e-10 8.41706e-11 -7.78428e-11
1.67905e-11 1.05888e-12 1.07381e-11
1.56305e-11 7.45294e-12 1.88886e-11
1.56342e-11 4.61482e-12 1.57158e-11
4.34407e-08 1.41595e-08 -4.38479e-09
4.70978e-08 2.79126e-08 -4.37376e-09
-3.83278e-05 2.79043e-05 -4.28094e-05
-1.19739e-08 2.16858e-08 -9.62728e-11
4.66448e-11 3.95712e-11 8.7747e-11
8.71581e-12 5.89717e-11 1.17042e-10
2.15112e-08 2.06897e-08 -3.74248e-09
2.40114e-08 2.06874e-08 -3.95488e-09
-7.52419e-09 1.02616e-08 -6.96186e-10
1.41894e-12 5.33918e-13 -3.99779e-13
-1.28094e-08 1.54306e-08 -2.00367e-09
-1.5244e-05 2.9957e-06 2.43305e-06
-8.57078e-10 9.11057e-09 -4.65142e-09
-2.19124e-09 8.51396e-09 -4.64001e-09
-4.19492e-06 2.72105e-07 -2.70138e-07
6.11128e-11 2.25644e-11 1.37097e-11
-1.10834e-05 5.29706e-06 6.23687e-06
3.90224e-15 4.28623e-16 -1.3968e-17
1.2695e-10 2.09619e-11 4.99957e-11
1.10755e-10 1.38511e-11 4.94422e-11
5.81707e-16 -1.21518e-16 6.5533e-17
-1.11096e-14 8.84821e-14 1.7654e-13
1.41853e-12 8.90533e-13 -1.38678e-14
1.98785e-15 1.97218e-15 8.35475e-16
6.96574e-16 1.45813e-14 -2.6681e-14
1.56343e-11 7.92068e-12 4.62557e-12
1.27987e-11 7.32354e-12 3.90503e-12
6.90751e-10 3.5067e-10 3.9276e-11
5.92072e-08 -4.7537e-08 -7.50834e-08
1.60775e-07 -5.01095e-08 -8.6068e-08
7.50472e-11 4.98026e-12 -7.67388e-11
1.89322e-11 9.7662e-12 -1.38973e-10
9.49959e-08 -1.16042e-07 -1.51261e-07
1.56347e-11 1.35439e-12 8.89077e-12
1.27934e-11 4.08798e-12 5.33562e-12
4.28374e-13 8.87044e-14 1.77431e-13
2.96827e-10 5.5419e-09 4.89807e-09
1.12901e-09 6.58448e-09 5.31944e-09
2.50214e-08 7.11163e-08 8.50021e-09
-7.80183e-09 5.57602e-09 3.99508e-09
2.41904e-11 1.52777e-11 2.30989e-11
-2.74183e-05 3.80646e-05 -5.98768e-05
-9.23087e-07 2.58767e-05 -3.8088e-05
2.23016e-08 5.43146e-08 7.27127e-09
1.18651e-09 1.42287e-10 2.53691e-10
2.42901e-08 4.63754e-08 8.36281e-09
-1.70366e-16 2.69956e-17 1.54183e-17
1.01423e-09 -1.17457e-10 3.01482e-10
2.39464e-06 -3.05706e-06 3.04023e-06
7.28648e-10 -6.32385e-12 1.91153e-10
4.12123e-11 1.78476e-11 -1.27069e-12
1.42077e-12 1.76895e-13 -1.6771e-13
2.80092e-15 1.89474e-15 2.86309e-16
4.22874e-11 2.48518e-11 -1.07886e-10
-9.23376e-12 3.76498e-11 -2.06433e-10
-9.7455e-07 1.4412e-05 -1.43202e-05
2.35487e-15 1.2392e-15 -6.61233e-16
5.82733e-11 1.61399e-11 -2.69023e-11
-2.2624e-12 -1.06357e-12 2.25615e-12
4.49184e-11 2.27291e-11 3.73086e-11
1.42094e-12 3.56939e-13 6.59766e-13
8.19716e-07 -2.80028e-07 2.7999e-07
7.97078e-10 1.70887e-10 -2.65354e-10
7.31732e-07 -2.28107e-07 2.52115e-07
0.00163185 7.72649e-05 -0.000509202
0.00136661 0.000109555 -0.000598531
4.26709e-12 3.201e-12 4.79844e-12
7.76405e-05 8.18159e-05 -0.000196664
4.40865e-12 3.8967e-12 6.05523e-12
-5.62053e-09 4.1692e-09 -4.58334e-10
-5.28824e-09 3.37952e-09 -9.94015e-10
4.3664e-12 5.86563e-12 6.78133e-12
1.7773e-09 1.17515e-09 -5.12289e-10
3.98924e-12 -2.09962e-13 -1.77052e-12
9.95107e-12 3.69947e-12 4.15314e-12
4.12631e-08 -1.27209e-07 1.50632e-07
7.1028e-12 3.20636e-12 3.06617e-12
1.02415e-11 3.19813e-12 6.24625e-12
7.15935e-12 2.48609e-12 5.31466e-12
9.49376e-08 -6.02066e-08 -1.04017e-07
-5.81242e-09 3.18118e-09 -7.08593e-10
-4.87975e-09 2.75191e-09 -1.35969e-09
-2.57655e-08 1.24676e-08 7.59004e-10
-4.24341e-08 2.81978e-08 -4.01319e-09
8.66919e-08 -9.70314e-08 -1.52544e-07
1.51259e-08 -7.40704e-10 3.50667e-09
5.59778e-09 1.93762e-09 -1.62351e-11
6.43433e-09 1.72096e-09 2.69319e-10
1.62814e-16 -4.2577e-15 -6.807e-16
-1.85386e-09 2.10037e-10 -1.81556e-09