# vtk DataFile Version 2.0
S, Created by Mohamad Ibrahim Cheikh
ASCII
DATASET UNSTRUCTURED_GRID
POINTS 10490 double
-223.577 20.3383 -34.7914
-223.732 23.2833 -32.7642
-130.494 -29.3212 69.2781
-194.385 -37.8826 -41.0223
-207.477 29.5025 40.042
-235.881 27.3945 13.4743
-191.276 -39.7124 -41.0808
14.4418 -3.17475 87.7974
-191.089 39.2073 -41.6684
-193.431 36.9199 -42.428
-251.147 3.2111 -3.3801
-251.007 5.4614 -0.714548
-204.328 29.2925 -42.1244
18.6484 -1.58808 87.7434
-201.232 30.3615 -43.1792
-151.397 68.7284 -14.6347
-148.626 69.9356 -12.1887
241.381 21.7602 -11.7088
240.378 24.3442 -8.78249
40.1881 72.8238 -47.3599
43.9996 72.1191 -48.019
45.494 -3.2382 -86.4877
49.349 -1.53885 -86.2756
-145.563 -45.4986 -55.4954
-142.059 -46.9236 -55.4204
-191.797 -27.3673 49.9127
-189.472 -30.0451 49.4579
-64.3389 -67.839 51.3329
-66.4777 -66.0186 53.3338
-121.233 -41.6834 -64.862
-205.502 44.6019 24.1719
-208.44 41.8656 25.9231
-64.8778 -22.6471 81.9499
-61.2359 -23.9577 81.9203
44.351 4.12956 86.5224
-201.399 -44.918 27.5758
-55.0149 81.9156 -25.7543
-52.1504 81.4776 -27.7926
-109.542 -78.4118 -11.2477
-105.515 -79.2424 -10.0779
-195.509 42.633 35.3083
-200.947 -43.0035 30.838
-54.4343 -15.3779 84.5266
3.54641 8.20777 87.6076
226.255 36.0722 -13.2452
223.494 37.2783 -15.4584
-147.021 22.4049 -67.7912
-143.856 23.6472 -68.1996
-167.021 -43.0254 -49.7746
-163.502 -43.4804 -50.7987
-215.267 -7.16081 -44.9365
-215.168 -3.16512 -45.451
-105.652 -17.6618 77.881
-104.116 -21.1963 77.25
-247.959 -12.5244 7.7245
-247.222 -12.2256 10.5722
-226.225 -18.8478 33.512
-129.028 -40.8345 -63.5476
238.447 4.07537 -27.6832
236.191 2.11792 -30.159
30.7312 -3.79132 -87.2582
26.7544 -2.07657 -87.476
-224.961 -22.5413 32.2492
-47.66 -75.8727 41.3429
-235.553 -26.7708 15.3058
-110.559 51.0738 -60.3238
-237.919 -25.2897 13.1985
-16.8303 -1.56791 -87.7887
-20.0227 -4.08605 -87.6255
25.3153 7.38754 -87.2408
27.436 3.60419 -87.4005
25.4954 1.63653 -87.5314
45.9942 -6.36372 -86.2816
-242.159 -16.9756 16.6251
249.587 -5.3692 -9.40944
249.111 -2.30259 -11.8806
-169.147 48.1593 43.8392
30.4397 -13.5102 -86.302
-165.523 47.9272 45.7454
-244.371 -14.4435 14.9725
243.986 6.92782 20.1941
244.544 3.56423 20.2422
-218.53 -34.253 26.9075
-142.146 -69.411 21.2685
-139.63 -70.7398 18.786
-221.096 -32.0566 27.0474
-157.971 -59.8004 33.3568
-205.042 32.4576 39.2844
-154.32 -61.3641 32.6009
21.3237 7.29041 87.3795
-119.108 18.4663 75.2735
-116.436 20.5427 75.2474
25.5784 -59.0353 64.6432
29.1137 -57.6655 65.688
-134.645 54.9824 -50.0134
-136.967 52.5076 -51.8667
-177.1 57.9122 23.457
-176.719 59.3812 19.8601
-70.6609 64.8226 -54.1363
-62.8 16.9131 -83.5171
-66.4111 16.9223 -83.1725
-67.1423 66.3443 -52.8253
124.477 57.7402 50.1304
121.045 58.3462 50.4567
-132.441 -69.8473 26.7929
-132.815 -68.0013 30.9867
-188.882 35.1104 46.2969
-185.134 37.2783 46.455
-232.727 13.1727 -30.6497
-61.1111 74.6334 41.4323
-62.3536 76.1703 38.2895
-231.928 16.7969 -29.6019
-175.272 -46.957 -42.1659
-178.796 -11.2361 60.8595
-181.802 -8.37802 60.2266
-195.832 53.7468 12.6511
-198.388 52.0597 14.6699
-195.137 -6.40585 -55.1455
-196.112 -2.36688 -55.0429
-155.763 25.009 64.4061
-159.485 22.4695 64.2264
-196.211 -54.5515 -7.39845
-193.182 -56.048 -5.79669
-91.7299 75.0467 -32.8909
-87.7728 75.4323 -33.3281
-39.2308 -78.9683 -36.3261
-42.732 -77.6555 -38.6012
-35.7521 20.3326 -84.7
-119.252 -59.0802 -50.1244
-116.057 -58.393 -51.8192
-103.566 -58.9138 54.4057
-107.461 -57.2239 55.2776
-176.123 46.8936 -41.8005
26.9054 13.877 -86.3875
23.8311 15.7214 -86.1818
-175.615 44.587 -44.499
-89.4485 -39.6002 72.085
-93.3189 -38.4677 72.0976
-1.7062 -75.0139 -46.0061
2.63282 -75.2497 -45.6139
-158.024 -33.2005 -59.8702
-154.737 -36.6347 -58.9109
26.6118 72.5651 48.904
28.9796 70.5207 51.6528
-166.628 38.791 53.2915
-169.032 36.4136 54.0368
126.653 60.2609 46.3543
125.021 62.2373 44.2367
55.9314 20.2504 83.3722
-158.166 12.6278 67.2441
-155.549 9.85196 68.4446
-44.8375 72.5179 -47.3183
71.0455 53.0301 -65.6799
-42.2938 74.2372 -44.8759
222.064 -27.8284 -30.5323
225.276 -26.0125 -29.2251
-17.7381 77.9606 -40.3439
-20.8885 76.9348 -42.0906
247.477 -7.06407 13.9944
245.671 -9.07241 16.5072
-182.899 19.8458 57.0492
-181.356 22.6878 56.5908
-56.3168 68.0795 52.1621
-53.9863 69.9049 50.0048
-221.676 26.3857 -32.1172
245.289 -12.7014 14.7128
-123.34 -44.6632 -62.3432
-128.466 -46.9026 -59.3599
-126.786 -44.2476 -61.7909
-219.064 -11.0554 41.7909
-206.378 49.8739 -6.48308
-208.064 48.511 -9.51826
-173.564 -35.1413 53.1126
-196.135 -34.8663 -42.6449
-56.8655 10.5668 85.0673
-100.326 80.5495 4.84507
-149.824 -21.4723 67.3403
-153.214 -21.7198 66.3193
-106.306 79.7117 2.54177
-104.032 79.9179 5.66622
-208.26 -1.82692 -49.3007
-211.703 -0.429448 -47.5048
8.07858 76.0819 -44.1311
9.55427 74.3038 -47.0295
-24.7749 84.9328 -21.3372
-25.9516 83.8193 -25.2166
13.3323 73.9881 -47.413
-209.323 34.9039 -34.0775
-209.443 37.4738 -31.1308
-243.671 12.2877 -17.9902
-206.009 40.0811 -30.6856
-237.953 16.7263 23.0658
-240.125 13.5328 22.3944
-198.677 34.6978 41.3207
-44.098 -51.8654 -69.3967
-47.9425 -52.1851 -68.8426
-66.095 77.8429 -33.9065
-63.0326 78.8344 -32.291
-198.916 37.6915 38.4587
-195.388 39.9797 38.362
193.195 51.8472 -22.0511
191.209 51.6114 -24.5779
-17.5954 71.4486 -51.0019
-15.5766 69.8871 -53.1985
-160.726 -8.68434 67.1256
-158.275 -5.15003 68.1945
-159.182 -12.1875 67.0313
-155.591 -13.9556 67.7153
-181.219 -39.3698 -46.6195
-187.07 -34.8955 -47.348
234.201 -8.1983 31.0077
231.367 -8.83977 33.3481
-185.725 -37.8064 -45.7338
-220.423 -36.332 -21.8072
-223.2 -33.1949 -23.2993
-75.1611 69.3022 47.4296
-199.264 43.3592 -31.6662
-202.428 40.5053 -32.9615
-79.7444 71.7517 42.628
-75.9925 71.4821 43.901
-199.863 -47.1008 -25.1998
-196.405 -49.1628 -24.5818
-156.239 -38.5677 57.1658
-155.218 -34.6089 59.9711
-162.939 56.2382 -36.4806
-159.799 58.0681 -35.2954
245.94 -16.0779 8.95225
246.756 -13.0535 10.9094
-202.197 25.1196 -45.9087
246.469 -16.6406 5.45926
-222.674 -40.7298 -3.81009
-219.563 -42.6766 -4.53664
-225.918 36.4498 -12.9115
-224.094 36.2076 -16.8757
-228.901 -34.8682 10.6495
-231.376 -33.5775 7.89082
-225.472 -37.7615 9.6949
119.613 74.821 19.8541
-172.164 -51.102 -38.7773
115.419 75.6347 19.8098
47.9006 12.1388 -85.5321
51.4895 10.7525 -85.4623
-180.223 -22.1807 57.2315
-179.977 52.3118 -32.2762
-165.46 0.843958 66.2686
-168.583 2.81987 65.2422
-181.023 -17.4233 58.5533
36.4529 -59.7576 63.3273
37.7868 -57.2109 65.5446
-159.985 -59.9395 -31.9
-182.768 -21.7992 -56.3835
-184.316 -18.0326 -57.0926
-11.9694 14.869 -86.6336
-188.59 -54.998 19.1009
-192.466 -53.1212 19.6698
-145.958 9.32138 -71.0554
-143.752 12.1174 -71.1842
-174.402 52.3983 35.7009
-173.454 50.7008 38.5999
-187.199 39.6979 -43.3324
-231.504 33.4911 -7.79779
-229.098 35.9657 -4.96061
-234.908 30.8675 -5.93747
241.404 7.7206 23.4443
239.892 10.8364 24.102
240.61 13.4015 21.8298
-138.88 -61.8306 -39.4915
-138.123 -60.1636 -42.292
-141.497 -58.2522 -43.5828
-200.351 -41.1655 -33.6898
-218.718 20.1121 -38.5061
-52.7312 8.93127 85.5792
-56.68 -81.1833 27.5672
-60.1944 -81.461 25.7777
-152.622 56.1683 41.6809
-153.453 58.032 38.6437
-189.415 -9.90222 -57.0382
-186.069 -8.88225 -58.5352
64.9084 -8.71747 84.5706
67.893 -7.09037 84.4357
-196.835 -37.2206 40.1891
-200.415 -34.611 40.3549
-180.668 -48.246 -37.6838
-174.532 -52.0917 -36.07
-215.619 -38.509 23.8557
-218.655 -36.4151 23.7598
-178.254 -50.9821 -35.421
-121.744 47.8558 -60.3257
-71.7836 59.1579 60.1121
26.8712 -68.3038 54.6826
24.81 -66.5903 56.8715
-87.2098 -8.62055 -82.0886
-84.0284 -6.31882 -82.702
-37.59 85.181 -17.7539
-40.7902 84.6179 -19.4962
-75.5618 59.6771 59.0222
-117.805 48.8362 -60.4974
67.1064 -10.9798 -84.0958
63.3576 -11.5834 -84.3704
-122.439 44.6505 -62.5696
-76.7322 63.6009 -54.5718
-80.1726 63.9122 -53.5937
-210.937 -46.4386 -11.8322
-207.91 -47.2776 -14.7159
-70.3817 -66.9064 51.5855
-82.9575 61.44 -55.9157
181.008 57.5718 -20.4499
187.795 54.7414 -20.7272
-57.9795 -57.7734 -63.2034
-60.2441 -59.9519 -60.8722
185.033 56.5047 -18.9616
-52.2296 4.82857 85.9459
170.803 -60.94 -21.4144
166.657 -61.8364 -22.7989
-242.16 -11.2313 20.9366
-241.443 -7.71483 23.3968
231.623 25.8608 -22.5155
229.371 25.1798 -25.8605
225.985 27.6872 -26.9258
-235.384 -18.9703 -24.5114
-234.85 -16.6288 -26.7371
-226.071 27.1579 -27.3722
-222.955 28.459 -29.1236
-220.771 31.3731 -28.151
-250.634 -7.29632 -0.178264
-176.064 45.2981 43.5535
58.7358 51.2068 -68.5528
59.7923 48.376 -70.4702
128.125 68.3791 32.5341
131.615 68.3054 30.9446
-176.961 47.6016 40.5481
-181.061 46.7496 39.3045
18.7051 -86.4181 15.267
142.043 69.3648 -21.5025
141.112 68.3952 -25.0642
23.2386 -86.1703 15.892
181.098 -44.0246 42.3148
25.6369 -86.6618 12.3797
-189.029 21.635 -53.8632
-189.449 17.8891 -55.0441
-212.326 -45.0148 14.0791
-120.854 -47.0075 -61.2054
-24.3193 -37.2775 79.2589
52.3463 18.497 -84.0618
55.8587 16.7114 -84.1589
-25.2881 -41.1261 77.2939
-119.135 -6.5546 -77.2227
-115.757 -7.77139 -77.7373
-200.054 16.4633 50.7255
-215.148 -43.2647 14.3196
-153.456 32.9919 61.4202
-156.887 31.3266 61.2307
-157.692 28.1735 62.4964
-79.9671 -83.431 0.60314
-64.0079 72.2395 -44.9872
-63.0923 70.2206 -48.2257
-79.8046 -83.3553 -4.02083
-209.642 -18.6829 44.8795
-61.0622 70.8339 47.6453
-205.671 -19.6763 46.6685
-191.284 -46.3889 33.3528
-190.154 -45.0081 35.9354
-195.138 47.3178 29.0345
-192.217 -42.6385 37.4498
-97.7293 19.6884 78.6577
-94.168 20.9451 78.8647
-195.846 -41.8734 35.9821
-247.679 -8.81317 12.483
188.065 -42.022 40.5952
184.93 -44.2656 39.9693
-127.324 75.4748 7.92324
-123.734 75.991 9.74498
48.9078 1.66187 86.304
130.449 15.5866 -73.6049
-179.753 46.506 -40.3153
198.596 13.1791 52.3603
200.491 9.43238 52.2854
113.378 74.8959 23.6815
109.642 75.3396 24.4166
149.577 63.7392 -30.6941
145.751 65.3521 -29.5344
-166.874 -45.6715 -47.4217
129.851 19.3506 -72.8371
-209.812 43.7046 -21.081
-206.951 46.1275 -19.3054
126.476 20.2026 -73.331
-61.903 -0.410874 85.2917
-59.2133 2.52535 85.4889
-53.8667 -2.04447 85.9335
[...]
POINT_DATA 10490
VECTORS F double
8.13215e-11 1.9815e-11 -5.29405e-11
1.71316e-10 7.81781e-11 -8.70455e-11
3.31154e-09 5.11768e-09 2.92927e-09
2.88478e-10 -7.11681e-11 -1.01303e-10
3.66719e-10 1.69643e-10 1.07647e-10
1.18824e-10 1.10667e-10 3.10968e-11
3.93642e-10 4.3726e-11 -2.66905e-10
-1.2481e-07 5.59042e-07 2.27195e-08
1.7305e-09 5.75121e-10 -4.30381e-10
1.68547e-09 4.86617e-10 -5.16922e-10
4.27327e-12 3.21898e-11 -1.88593e-11
4.2673e-12 2.5149e-11 -4.74411e-12
2.9701e-10 2.80493e-10 1.85506e-11
-2.65358e-07 1.05338e-06 2.59602e-08
3.58536e-10 7.92038e-11 -1.48854e-10
2.82092e-09 4.3332e-11 -3.37056e-09
3.68825e-09 2.63603e-10 -3.99431e-09
-6.09991e-09 1.01982e-08 3.59487e-09
-6.99932e-09 1.01174e-08 4.63369e-09
-3.26217e-05 9.90973e-06 1.18492e-05
-3.10996e-05 9.85102e-06 1.13068e-05
-1.2206e-06 8.59906e-07 -1.10794e-07
-1.14724e-06 7.81262e-07 -9.42626e-08
1.47581e-09 1.01575e-09 -1.30636e-09
1.93882e-09 1.60041e-09 -1.96306e-09
2.79951e-10 3.55613e-10 3.26234e-10
2.57223e-10 2.7838e-10 2.8964e-10
1.57585e-09 5.678e-09 7.74521e-09
-2.83678e-09 4.54936e-09 5.19772e-09
7.15983e-09 1.9694e-09 -2.90356e-09
5.00402e-10 1.46087e-10 2.5062e-10
3.45783e-10 1.43181e-10 1.09256e-10
4.72948e-08 9.20225e-08 3.00129e-08
3.636e-08 4.8797e-08 1.75966e-08
-5.19736e-07 1.2637e-06 -2.77104e-08
1.09433e-10 2.09759e-11 1.32857e-10
3.48189e-08 -1.28664e-08 -5.00272e-08
7.36067e-09 -2.99595e-08 -8.9518e-08
1.00577e-09 -3.05434e-11 -9.88281e-10
9.70029e-10 -8.45449e-11 -5.77353e-10
7.53776e-10 1.45931e-10 3.34401e-10
1.59766e-10 1.52888e-11 1.48631e-10
9.05275e-08 1.22821e-07 2.94798e-08
8.7562e-08 7.99815e-07 -7.53761e-08
-1.32741e-08 8.75846e-09 -3.87951e-09
-2.13093e-08 1.89556e-08 8.02073e-09
8.99834e-09 -2.86108e-10 -2.48317e-09
8.17859e-09 4.18876e-09 -6.58723e-10
2.17946e-10 3.03045e-10 -3.52077e-10
2.78707e-10 4.11578e-10 -4.61754e-10
1.57849e-10 1.11262e-10 -1.10986e-10
1.78438e-10 1.32252e-10 -1.12626e-10
2.34837e-08 2.52365e-08 9.62196e-09
2.89011e-08 2.53948e-08 1.17358e-08
-9.94085e-12 3.43055e-11 1.42862e-11
-4.26531e-12 2.69648e-11 1.85737e-11
1.33685e-10 7.68067e-11 1.53817e-10
4.62372e-09 -4.13415e-10 -8.83556e-10
-7.20462e-09 5.53493e-09 -6.77405e-09
-7.41081e-09 4.62351e-09 -6.77256e-09
-4.89775e-07 1.23034e-06 -7.45599e-08
-4.35819e-07 1.53228e-06 -5.2678e-08
9.13182e-11 6.14967e-11 1.20452e-10
8.15704e-10 2.09116e-09 3.9528e-09
9.95384e-12 2.66444e-12 2.56568e-11
9.83568e-08 -1.1577e-09 -2.30475e-08
1.42385e-12 1.64247e-11 3.70146e-11
2.63548e-07 8.65426e-07 -2.16302e-08
3.88089e-07 6.46468e-07 -4.09927e-08
4.57848e-07 3.3318e-06 2.98419e-07
-1.04242e-06 2.43007e-06 6.01629e-08
-3.2487e-07 1.63423e-06 1.89864e-08
-3.1988e-07 9.75665e-07 -9.28287e-08
2.13212e-11 2.25644e-11 6.08108e-11
7.60369e-10 4.84492e-09 -2.48357e-10
-1.05745e-09 2.81013e-09 -3.22398e-09
7.29738e-10 -3.65677e-10 7.46457e-10
4.40163e-07 5.91513e-07 -7.35824e-08
1.06471e-09 -2.73664e-11 5.00583e-10
1.56322e-11 7.37535e-12 3.59783e-11
-3.09691e-09 4.1549e-09 3.14561e-09
-9.50566e-10 4.08302e-09 6.76641e-10
8.10057e-11 -4.56892e-12 7.58153e-11
4.33754e-10 3.19937e-11 4.61728e-10
3.36805e-10 7.13387e-13 3.0996e-10
6.96373e-11 -3.50098e-13 7.0005e-11
4.45337e-10 1.46e-10 5.19952e-10
3.46221e-10 2.12667e-10 4.58345e-11
5.10239e-10 1.48864e-10 5.76709e-10
5.33794e-07 1.5967e-06 -1.49182e-07
2.48444e-08 9.05011e-09 2.59142e-09
2.55606e-08 1.03427e-08 2.01743e-09
1.12659e-08 3.55683e-08 3.19348e-08
1.7021e-09 5.61009e-08 4.91539e-08
1.95196e-08 2.90875e-09 -3.23482e-09
2.63187e-08 -5.4038e-10 -9.05493e-09
4.87437e-10 1.42828e-10 9.76405e-11
1.19313e-09 3.88324e-10 1.38725e-10
2.38956e-07 -7.40772e-08 -1.26879e-07
2.16286e-07 -8.8188e-08 -3.77668e-08
2.04722e-07 -9.18436e-08 -3.86957e-08
2.7848e-07 -1.00174e-07 -1.6914e-07
-7.61174e-07 3.47587e-07 -1.68989e-07
-8.15776e-07 3.76917e-07 -1.96289e-07
4.59076e-10 5.61335e-11 4.23035e-10
6.43902e-10 8.5722e-11 5.25362e-10
1.6143e-09 1.81064e-10 6.68842e-10
1.68477e-09 2.83689e-10 5.94372e-10
7.24808e-11 4.84363e-11 -4.70857e-11
-1.15033e-08 -4.3059e-08 7.54834e-08
1.77138e-08 -3.1319e-08 6.58335e-08
6.67929e-11 5.59208e-11 -3.24242e-11
3.62656e-10 -1.39812e-10 -2.94775e-11
1.91427e-09 8.82129e-10 8.51077e-10
1.10912e-09 6.99082e-11 4.19562e-10
5.12613e-10 2.55444e-10 -1.14761e-10
5.83545e-10 2.55436e-10 5.89526e-11
2.45891e-10 8.30372e-11 -1.16872e-10
4.48667e-10 1.77798e-10 -2.03568e-10
3.00884e-09 4.54512e-09 -8.7349e-10
4.75451e-09 1.20614e-09 1.02287e-09
7.03102e-11 -2.66481e-11 -3.24669e-11
6.10987e-11 -2.63202e-11 8.98985e-12
3.17024e-08 -7.43968e-09 -2.77966e-08
3.22303e-08 -1.91274e-08 -5.3681e-08
4.65389e-10 3.40232e-09 -7.45733e-09
1.26149e-09 4.4147e-09 -9.05174e-09
1.51863e-06 1.06303e-06 1.76721e-07
4.14202e-09 1.95862e-09 -3.51458e-09
4.13837e-09 2.48271e-09 -3.93214e-09
2.94208e-09 2.29257e-09 3.1676e-09
3.2289e-09 3.29969e-09 4.18396e-09
4.34333e-09 4.24038e-10 -1.76414e-09
9.92312e-07 3.49423e-06 5.99171e-07
-2.80921e-08 2.04212e-06 3.71614e-07
1.80507e-09 -7.0051e-10 -1.57364e-09
1.46962e-08 1.11457e-08 8.35435e-09
1.48042e-08 1.51095e-08 1.04065e-08
-2.70344e-09 1.07452e-08 -1.75063e-08
-2.29038e-09 7.97172e-09 -1.31667e-08
1.50494e-09 1.04039e-09 -1.06268e-09
1.16543e-09 6.54825e-10 -7.81971e-10
-3.41271e-05 2.65988e-05 -3.71942e-05
-3.61548e-05 2.6251e-05 -3.33566e-05
5.93059e-09 1.03195e-09 1.51879e-09
4.81666e-09 1.58749e-09 7.74476e-10
-3.97792e-07 1.93143e-07 -1.18062e-07
-1.12138e-06 8.74401e-08 2.64943e-07
-4.17761e-08 2.85863e-07 -6.60201e-08
4.88471e-09 1.42676e-09 1.13793e-09
2.88972e-09 -1.0167e-09 9.50013e-10
7.91412e-08 -3.3117e-07 -5.16707e-07
-4.64373e-06 3.31434e-06 2.06111e-06
-1.83417e-07 -2.02913e-07 -3.14504e-07
-9.8043e-10 2.76405e-09 -3.39026e-09
-6.03962e-10 2.28471e-09 -2.60038e-09
-8.56196e-17 3.07364e-15 -1.59058e-15
5.04133e-16 -1.5166e-14 8.29722e-15
-7.81576e-11 7.9355e-10 5.53845e-10
-2.38058e-10 9.48671e-10 9.4651e-10
1.28946e-09 6.07561e-10 2.9522e-10
1.21881e-09 7.5016e-10 1.77363e-10
9.37006e-08 -1.45661e-07 2.02492e-07
1.40579e-08 -1.01339e-07 1.43525e-07
2.49356e-10 7.55744e-11 -1.48869e-10
-6.77946e-10 3.44679e-10 1.67206e-09
6.0449e-09 2.16999e-09 -3.01845e-09
2.61149e-09 9.10564e-10 -1.41083e-09
5.66348e-09 -3.31522e-10 -1.18482e-09
1.23634e-10 1.42012e-10 1.16498e-10
4.08849e-10 2.0926e-10 1.38054e-11
4.70495e-10 2.31373e-10 -8.12789e-11
8.31477e-10 3.46761e-10 5.62328e-10
3.79477e-10 -2.87792e-11 -1.90601e-10
2.50952e-07 9.93361e-08 8.19288e-09
1.74452e-08 2.44223e-09 3.60282e-09
9.36789e-10 1.21706e-09 6.43049e-10
7.32491e-10 1.46494e-09 6.87075e-10
1.50899e-08 2.78917e-09 -1.02423e-08
1.37826e-08 2.77327e-09 -8.14458e-09
1.99499e-10 6.11238e-11 -1.04818e-10
1.98796e-10 1.54183e-10 -1.09787e-10
-3.16846e-05 4.20459e-05 7.17778e-05
-1.22681e-05 4.71706e-05 7.42224e-05
0 0 0
1.25266e-16 -3.30462e-15 9.94178e-16
-1.46443e-05 2.53491e-05 3.90539e-05
4.91539e-10 1.47002e-10 -2.18912e-10
9.08076e-10 3.63371e-10 -3.10008e-10
6.67951e-11 9.12438e-11 -4.92038e-11
8.97142e-10 4.55111e-10 -1.43343e-10
6.48362e-11 1.11478e-10 1.82786e-12
6.76133e-11 8.91875e-11 3.5703e-11
6.6054e-10 -3.65573e-10 6.95238e-10
4.62608e-08 2.4388e-08 -2.18246e-08
4.3557e-08 2.83444e-08 -2.51981e-08
2.76048e-08 -2.72675e-08 -6.9185e-08
2.4052e-08 -2.12441e-08 -5.76102e-08
8.88183e-10 -2.00707e-10 7.5838e-10
7.74496e-10 9.65491e-11 3.81224e-10
-5.73802e-08 2.79504e-08 4.18705e-09
-7.57908e-08 4.05532e-08 1.29839e-08
-3.39724e-16 1.12676e-14 -8.0431e-15
9.91396e-05 1.67187e-05 1.84096e-05
4.63934e-09 1.73805e-09 1.58391e-09
6.33168e-09 8.41879e-10 1.86235e-09
2.02577e-09 3.6868e-10 6.55844e-10
2.73796e-09 1.5379e-09 1.08642e-09
6.25555e-10 2.64437e-10 -5.20805e-10
6.14921e-10 1.31109e-10 -3.93734e-10
1.27078e-11 3.56256e-09 9.26627e-10
-2.14693e-10 3.94576e-09 1.22508e-09
5.42549e-10 7.36463e-11 -3.30769e-10
3.29229e-11 -1.45675e-11 -1.82969e-11
3.26816e-11 -8.99911e-12 -2.40302e-11
7.10224e-08 -3.88619e-08 7.05592e-08
9.85254e-10 5.04676e-10 -6.83907e-11
9.71205e-10 4.51555e-10 -1.75493e-10
5.58778e-08 -2.18204e-08 4.95234e-08
5.06891e-08 -3.72994e-08 7.14726e-08
6.67918e-11 2.02237e-11 -1.02914e-10
5.82735e-11 1.00947e-12 -5.97133e-11
1.16847e-09 1.20096e-09 1.20089e-09
2.15126e-09 1.06448e-09 1.29571e-09
2.37535e-09 2.31158e-10 -9.42535e-10
3.24842e-09 6.29378e-11 -1.69598e-09
7.69297e-10 2.15443e-09 1.25811e-09
4.29335e-10 2.39054e-09 1.65228e-09
5.96031e-10 2.12066e-10 -2.05708e-10
5.47817e-10 1.35119e-09 1.04818e-09
-1.4103e-12 1.07032e-12 -5.29236e-12
7.10547e-12 -8.17723e-12 3.12906e-11
2.3448e-10 1.53355e-10 -6.80134e-11
3.19778e-10 2.13176e-10 -6.35672e-11
3.26902e-11 -1.06193e-11 4.8509e-11
1.84953e-11 -4.61748e-12 5.19204e-11
2.13238e-11 -1.66957e-11 -7.93319e-13
-2.11962e-06 3.17495e-07 3.6672e-07
4.49949e-10 -1.60971e-10 -3.1622e-11
-2.19221e-06 4.08579e-07 3.54659e-09
6.15999e-07 1.10931e-06 1.99693e-07
5.34273e-07 7.23161e-07 1.30409e-07
8.61023e-10 7.92904e-10 6.39134e-10
2.23999e-09 9.80615e-11 -1.36992e-09
2.69983e-09 -3.84618e-10 8.29975e-10
2.74258e-09 7.63069e-11 8.64038e-10
1.13096e-09 9.19892e-10 7.01666e-10
2.66514e-09 3.90441e-08 3.66536e-08
5.20534e-09 4.21291e-08 3.6403e-08
5.90734e-10 -1.63653e-11 -3.32405e-10
4.98803e-10 -2.10528e-11 -1.89758e-10
8.79652e-10 1.48935e-10 -3.94361e-10
1.50518e-06 2.37828e-06 3.8275e-07
9.48613e-11 3.1985e-12 1.22198e-10
6.96402e-11 -3.86056e-12 7.47872e-11
9.35811e-09 1.61353e-09 -2.1409e-09
9.62555e-09 2.30769e-09 -1.98602e-09
2.09382e-09 7.18682e-10 1.97406e-10
1.85953e-09 4.99365e-10 3.66285e-10
1.96568e-09 1.06269e-09 -6.59645e-11
2.14657e-10 1.73728e-10 -3.70565e-11
2.00367e-10 1.58117e-10 2.19019e-11
1.71851e-10 1.3625e-10 -1.18395e-10
-3.77724e-09 7.02097e-09 2.44142e-09
-3.03688e-09 8.53056e-09 -1.43825e-10
-3.52889e-09 8.90839e-09 -7.1764e-10
1.44631e-09 1.32525e-10 -8.29674e-10
1.285e-09 2.83157e-10 -9.16825e-10
1.57382e-09 6.68986e-10 -1.52013e-09
1.09432e-10 8.07436e-11 -1.79008e-10
1.97542e-10 1.43308e-10 -6.33019e-11
3.34944e-07 2.68915e-07 -2.80314e-09
1.94483e-09 7.23963e-10 2.61993e-09
1.78801e-09 5.77658e-10 2.33517e-09
2.40478e-09 -1.65189e-09 3.30357e-09
5.05842e-09 -3.04512e-10 2.91643e-09
6.25716e-10 3.77182e-10 -3.19396e-10
7.88707e-10 7.11201e-11 -3.17758e-10
1.69891e-07 2.66411e-07 1.14916e-08
9.76479e-08 4.46403e-07 2.78648e-08
1.8906e-10 1.1282e-10 2.18497e-10
1.60463e-10 1.07753e-10 1.89362e-10
2.51534e-10 2.52571e-11 -1.80842e-10
2.68472e-10 -3.5927e-11 -1.0622e-10
6.17552e-11 -8.16718e-12 5.59544e-11
5.82678e-11 -3.541e-13 6.48077e-11
2.37322e-10 -2.52825e-12 -1.41745e-10
5.48763e-08 4.50274e-09 -9.98456e-09
1.05992e-07 -4.23271e-08 5.7148e-08
5.16981e-09 3.274e-08 4.05831e-08
-9.50447e-09 2.78641e-08 3.31319e-08
5.65142e-08 3.1622e-08 -1.06695e-08
5.56524e-08 3.87374e-08 -9.88027e-09
-5.46517e-08 -6.06167e-09 -1.49156e-08
-4.57167e-08 -1.01344e-08 -3.22734e-08
1.00577e-07 -3.99062e-08 5.61103e-08
5.56506e-08 1.10112e-08 -4.3766e-09
-3.21777e-07 3.93739e-07 -8.28366e-08
-3.36135e-07 3.21192e-07 -7.4992e-08
3.85959e-08 3.14044e-09 -7.00355e-09
1.23362e-07 -3.01641e-08 -5.63859e-08
9.2209e-08 -8.38441e-08 -1.16868e-07
5.82704e-11 -3.66515e-11 1.56176e-11
3.55277e-11 -1.0314e-11 -2.99528e-11
-1.28582e-09 1.92516e-09 2.28224e-09
1.66265e-07 -1.30287e-07 -1.73351e-07
-1.57964e-07 4.8683e-08 -3.40796e-08
-1.21981e-07 5.59447e-08 1.24859e-08
-1.2258e-08 1.41514e-08 -1.15579e-08
-3.61355e-09 7.68644e-09 -7.13143e-09
-1.51162e-07 5.78898e-08 -8.03313e-09
1.67259e-07 2.32591e-07 -6.2884e-10
1.44736e-09 1.47835e-09 -2.79206e-09
1.33771e-09 1.75383e-09 -3.55768e-09
1.63484e-11 7.19692e-12 2.78921e-11
3.8369e-11 1.19182e-12 4.81109e-11
-4.25395e-09 7.34114e-09 3.08712e-09
-8.68133e-09 1.31814e-08 3.4198e-09
-1.05374e-08 1.22252e-08 1.75567e-09
4.26865e-12 2.29245e-11 -2.2137e-11
5.54264e-11 -8.81027e-12 -5.42104e-11
2.49259e-10 2.23031e-10 -3.14911e-11
2.6399e-10 1.1198e-10 -1.38375e-10
2.40165e-10 1.41678e-10 -7.30197e-11
-7.11161e-12 3.46467e-11 -2.87604e-12
1.64275e-09 5.79023e-11 7.52395e-10
-1.85651e-06 3.375e-06 2.32636e-06
-8.8953e-07 3.41828e-06 2.25425e-06
-9.00981e-07 1.38156e-07 1.43981e-07
-7.59902e-07 2.03472e-08 3.50725e-07
1.94836e-09 3.10673e-10 6.75726e-10
1.75804e-09 -5.50461e-11 1.05674e-09
4.97792e-10 8.28632e-10 4.61545e-09
-5.03401e-07 -1.09519e-08 -4.42371e-07
-9.07616e-07 8.16224e-08 -4.02797e-07
1.3614e-09 2.92033e-10 1.33534e-09
-3.00711e-09 3.01276e-09 4.70894e-09
5.36704e-10 7.60347e-11 3.92047e-10
6.89236e-10 7.11031e-10 -1.09977e-11
5.5313e-10 6.49344e-10 -2.23766e-11
2.74812e-12 1.45682e-11 5.17981e-11
7.86953e-09 2.9716e-09 -4.18432e-09
4.59327e-08 3.26217e-08 1.70656e-08
-6.08072e-07 1.56897e-06 2.98907e-07
-6.36139e-07 1.35619e-06 2.17626e-07
2.49653e-08 3.19267e-08 1.79847e-08
4.30704e-09 9.03196e-09 -1.57953e-09
6.01291e-09 1.17937e-08 -2.27447e-09
6.18179e-10 5.98891e-10 1.04316e-10
-1.42153e-12 2.10351e-11 6.32833e-11
5.95947e-09 4.80591e-09 -7.58552e-10
6.40204e-09 2.83125e-09 5.59272e-10
5.39712e-10 3.21721e-09 -1.28376e-09
1.95835e-11 -4.97373e-12 -4.79337e-10
1.29819e-08 -8.32017e-08 -1.35859e-07
1.02174e-07 -7.49387e-08 -1.25477e-07
8.01976e-10 -6.46447e-11 -6.07121e-10
1.70564e-10 7.80853e-11 1.29787e-10
7.56702e-08 -3.93814e-08 7.04181e-08
2.08913e-10 1.84655e-10 1.91081e-10
1.7196e-10 4.72789e-11 1.87504e-10
2.6859e-10 1.25826e-11 1.9078e-10
3.86208e-10 2.34096e-10 -6.31251e-11
1.97528e-10 1.09385e-11 1.36164e-10
5.01232e-08 4.47404e-08 -3.57595e-09
7.49514e-08 -1.73979e-08 1.55759e-08
1.55774e-10 1.01307e-10 2.22201e-10
7.09822e-12 2.69582e-11 3.33336e-11
-5.82545e-09 4.24358e-09 7.69568e-09
-3.40929e-09 1.24928e-09 3.31323e-09
3.56251e-09 8.19265e-10 -8.04717e-10
4.42504e-09 1.06512e-09 -1.43202e-09
-7.32351e-07 7.85561e-07 3.56701e-08
-9.88934e-08 2.9263e-07 4.0524e-08
4.37887e-09 1.14735e-09 -1.06642e-09
-2.70152e-08 3.61713e-08 3.43493e-09
-1.3768e-08 4.02944e-08 -8.10501e-10
-1.59986e-06 1.69232e-07 4.02358e-07
-1.9162e-06 6.50384e-07 -9.53497e-07
-8.90558e-07 2.38192e-07 -3.6647e-08
-1.06274e-06 1.45189e-07 -3.20746e-07
-3.05643e-11 2.97366e-10 -2.73091e-10
-2.77318e-07 2.90069e-07 1.65496e-08
4.30425e-10 8.70478e-11 -3.42598e-10
4.60741e-10 1.17891e-10 -3.22602e-10
-2.92448e-07 3.18651e-07 2.60515e-08
1.37365e-07 1.78416e-07 1.3062e-08
1.97671e-07 1.36263e-07 1.2733e-08
1.58575e-07 1.32605e-07 1.53209e-08
3.9654e-11 1.31451e-11 8.94112e-11
4.32438e-09 9.51093e-10 -4.49697e-10
5.18668e-09 1.16319e-09 -1.72043e-09
7.64847e-07 7.93874e-07 -1.10365e-07
3.55341e-11 -1.10052e-11 3.23872e-11
2.14252e-07 1.66707e-07 1.35992e-08
4.6738e-08 6.31641e-08 3.00976e-08
8.70937e-08 -7.85883e-09 -1.89061e-08
1.74698e-07 6.44245e-08 1.33976e-08
8.99438e-10 9.60826e-10 3.85461e-10
1.0592e-09 9.22008e-10 3.95429e-10
-3.8517e-08 6.65571e-07 6.55943e-08
6.59093e-08 3.68495e-07 3.40443e-08
4.73484e-10 1.98591e-10 1.50567e-10
2.2184e-09 9.17548e-10 7.13159e-10
2.35837e-09 3.37857e-10 -1.05271e-09
3.26455e-09 8.62474e-10 -5.14416e-10
-5.48713e-09 7.468e-10 6.07443e-09
-4.77137e-09 1.22738e-10 3.84692e-09
1.37631e-09 1.55637e-10 -1.07678e-09
1.10486e-09 4.24161e-12 -5.95975e-10
1.24245e-09 1.64637e-09 2.86322e-09
1.74928e-09 1.18022e-09 2.67152e-09
1.26072e-09 1.34086e-09 2.61589e-09
1.9811e-10 6.64284e-11 1.87327e-10
2.82872e-10 1.39915e-10 6.69564e-11
3.8512e-10 1.6495e-10 1.66336e-10
2.97599e-10 1.61046e-10 -2.97362e-10
1.40695e-10 8.9206e-11 -1.80149e-10
7.40784e-09 9.9092e-09 -7.13296e-09
8.98481e-09 6.47221e-09 -5.2017e-09
5.49127e-07 1.35415e-06 -2.84133e-07
2.67276e-07 9.38651e-07 -2.06174e-07
7.85853e-11 5.64807e-11 -1.17547e-10
8.6784e-09 -3.34059e-09 -9.07381e-10
-6.201e-09 3.65021e-09 4.42382e-09
1.06579e-10 1.67841e-11 -1.06643e-10
1.24146e-07 7.45223e-07 -2.69417e-08
1.3441e-08 4.75702e-08 -3.57651e-08
6.51513e-09 4.44696e-08 -3.19787e-08
6.74658e-07 -4.78188e-07 -5.61878e-07
1.41994e-09 6.23507e-10 5.63159e-10
-3.95962e-09 -5.26544e-10 -1.47793e-08
-3.49719e-09 -1.20078e-10 -1.301e-08
-3.90403e-09 6.75037e-11 -4.02612e-09
-9.39227e-09 -9.23176e-12 -1.09219e-08
1.42805e-09 6.27048e-10 7.95575e-10
6.23778e-07 -2.04512e-07 -2.80237e-07
5.91234e-07 -2.2214e-07 -2.7682e-07
1.61433e-10 6.04906e-12 -1.49879e-10
-2.42255e-11 6.46452e-11 -7.77864e-10
2.38456e-10 3.48098e-11 -1.10122e-09
1.77634e-10 1.52686e-11 -1.6606e-10
1.49214e-10 -6.07482e-12 -1.17403e-10
2.4301e-10 1.81374e-10 -2.76821e-11
2.43178e-10 2.68175e-10 5.32697e-11
-4.67904e-07 8.32934e-08 1.22242e-07
-1.95005e-05 7.86879e-06 -7.5358e-06
-1.47408e-05 1.4642e-05 -1.71819e-05
-3.34137e-09 2.03781e-07 -5.61794e-08
2.54454e-09 5.63266e-10 -1.06191e-09
1.06764e-09 3.81187e-10 4.15003e-10
2.19453e-09 1.8532e-09 -1.46769e-09
2.26322e-09 6.86573e-10 -9.82342e-10
7.97934e-10 -1.81118e-11 4.04671e-10
6.98542e-10 2.4277e-10 7.08803e-10
5.91013e-10 1.49145e-10 5.41348e-10
1.33444e-07 3.29721e-08 -1.35642e-08
1.39951e-07 5.97149e-08 -1.32196e-08
-4.20522e-05 2.78093e-05 -4.25517e-05
-6.20324e-08 1.33979e-07 3.2577e-09
1.4721e-09 2.06743e-10 8.17119e-10
4.58035e-10 1.08519e-09 2.26811e-09
7.06188e-08 6.21822e-08 -1.18743e-08
7.37431e-08 4.57601e-08 -1.07983e-08
-3.78072e-08 6.34899e-08 -1.27221e-09
7.25129e-11 9.54213e-11 -2.22044e-11
-6.98537e-08 1.03683e-07 -8.04931e-09
-2.08397e-05 4.49905e-06 3.96601e-06
3.77197e-09 5.92646e-08 -2.81053e-08
-3.66887e-10 5.12401e-08 -2.50805e-08
-6.2163e-06 5.11713e-07 -2.28188e-07
1.05027e-09 4.41214e-10 1.74337e-10
-1.55651e-05 7.55208e-06 8.936e-06
-4.26513e-12 3.99157e-11 6.37249e-12
1.9057e-09 3.33817e-10 7.0864e-10
2.01759e-09 1.67411e-10 1.01433e-09
1.41762e-12 2.51998e-11 -1.45824e-11
9.95301e-12 3.41646e-11 3.74174e-11
7.81645e-11 1.09006e-10 -2.89895e-11
2.97701e-11 -2.11427e-11 -1.76489e-11
2.98481e-11 -1.31247e-11 -3.43522e-11
4.95989e-10 3.23662e-10 5.22107e-11
5.38594e-10 2.65501e-10 1.64459e-10
6.05179e-09 2.94572e-09 2.27742e-10
9.84105e-08 -9.90274e-08 -1.52778e-07
3.20591e-07 -1.00287e-07 -1.72103e-07
2.77635e-09 1.59854e-10 -1.12185e-09
9.55518e-11 1.92743e-10 -2.90456e-09
1.62055e-07 -2.48908e-07 -3.19195e-07
5.04488e-10 -9.29227e-12 2.97678e-10
2.94429e-10 6.51239e-11 1.32517e-10
7.10326e-12 2.04403e-11 2.65366e-11
-1.67082e-10 3.05059e-08 2.70127e-08
6.17818e-09 3.46971e-08 2.80309e-08
6.5094e-08 1.76662e-07 2.13299e-08
-3.48719e-08 2.4684e-08 1.77687e-08
4.59132e-10 4.37106e-10 5.62199e-10
-3.50089e-05 4.38976e-05 -6.93243e-05
-4.03186e-06 3.08169e-05 -4.54326e-05
6.17814e-08 1.43875e-07 1.94711e-08
6.60402e-09 -6.49109e-10 2.03856e-09
6.75434e-08 1.28441e-07 2.31916e-08
-1.42133e-12 -3.1103e-12 -2.04045e-12
4.70192e-09 -2.17906e-09 1.98907e-09
3.6304e-06 -4.95884e-06 4.91605e-06
3.63031e-09 -1.72936e-09 1.50141e-09
8.30944e-10 4.49029e-10 2.42143e-10
3.55216e-11 5.11229e-11 -3.8911e-11
-2.80218e-12 9.06404e-12 2.97045e-11
2.02874e-09 7.36801e-10 -2.32873e-09
-2.28117e-10 1.03253e-09 -5.58644e-09
-1.1655e-06 1.77197e-05 -1.76349e-05
-4.2669e-12 1.68782e-11 5.0983e-11
1.17896e-09 3.54922e-10 -4.50218e-10
-6.4749e-10 -3.14418e-10 2.70012e-10
1.05989e-09 5.34677e-10 8.793e-10
8.80207e-11 -2.30965e-11 5.21558e-11
1.40729e-06 -5.76869e-07 5.54278e-07
7.08383e-09 3.8189e-10 -1.7591e-09
1.13156e-06 -4.70443e-07 4.89513e-07
0.00120215 3.25436e-05 -0.000251075
0.00113299 4.6403e-05 -0.000269205
1.95729e-10 1.65195e-10 2.53305e-10
0.000115624 0.000105639 -0.000259811
2.2311e-10 1.94328e-10 2.63752e-10
-3.64073e-08 4.00556e-08 4.70544e-09
-3.98047e-08 3.00583e-08 -5.02403e-09
2.57223e-10 2.77915e-10 3.29401e-10
1.44248e-08 7.05849e-09 -3.89321e-09
2.58168e-10 -5.79025e-11 -6.78508e-11
3.20093e-10 1.69009e-10 5.80888e-11
5.00314e-08 -2.35385e-07 2.75827e-07
2.97012e-10 1.26893e-10 1.23898e-10
3.65235e-10 9.4191e-11 2.19968e-10
3.32049e-10 1.08355e-10 1.94612e-10
1.68272e-07 -1.27068e-07 -2.14931e-07
-5.34629e-08 2.87454e-08 -1.0268e-08
-4.69498e-08 2.53196e-08 -2.23371e-08
-1.00134e-07 6.57411e-08 -1.02708e-08
-1.72397e-07 1.46334e-07 -3.88828e-08
1.49236e-07 -1.96565e-07 -3.05601e-07
4.6333e-08 -6.85142e-09 1.38483e-08
1.5971e-08 6.36635e-09 -5.54941e-10
1.7237e-08 4.96642e-09 5.17973e-10
1.62814e-16 -4.2577e-15 -6.807e-16
-6.41941e-09 7.2832e-10 -6.28651e-09